 vasp.5.4.4.18Apr17-6-g9f103f2a35 (build Mar 12 2019 21:14:03) complex          
  
 executed on             LinuxIFC date 2024.06.27  18:45:32
 running on   28 total cores
 distrk:  each k-point on   28 cores,    1 groups
 distr:  one band on NCORES_PER_BAND=   1 cores,   28 groups


--------------------------------------------------------------------------------------------------------


 INCAR:
 POTCAR:   PAW_PBE O 08Apr2002                    

 ----------------------------------------------------------------------------- 
|                                                                             |
|           W    W    AA    RRRRR   N    N  II  N    N   GGGG   !!!           |
|           W    W   A  A   R    R  NN   N  II  NN   N  G    G  !!!           |
|           W    W  A    A  R    R  N N  N  II  N N  N  G       !!!           |
|           W WW W  AAAAAA  RRRRR   N  N N  II  N  N N  G  GGG   !            |
|           WW  WW  A    A  R   R   N   NN  II  N   NN  G    G                |
|           W    W  A    A  R    R  N    N  II  N    N   GGGG   !!!           |
|                                                                             |
|      For optimal performance we recommend to set                            |
|        NCORE= 4 - approx SQRT( number of cores)                             |
|      NCORE specifies how many cores store one orbital (NPAR=cpu/NCORE).     |
|      This setting can  greatly improve the performance of VASP for DFT.     |
|      The default,   NCORE=1            might be grossly inefficient         |
|      on modern multi-core architectures or massively parallel machines.     |
|      Do your own testing !!!!                                               |
|      Unfortunately you need to use the default for GW and RPA calculations. |
|      (for HF NCORE is supported but not extensively tested yet)             |
|                                                                             |
 ----------------------------------------------------------------------------- 

 POTCAR:   PAW_PBE O 08Apr2002                    
   VRHFIN =O: s2p4                                                              
   LEXCH  = PE                                                                  
   EATOM  =   432.3788 eV,   31.7789 Ry                                         
                                                                                
   TITEL  = PAW_PBE O 08Apr2002                                                 
   LULTRA =        F    use ultrasoft PP ?                                      
   IUNSCR =        0    unscreen: 0-lin 1-nonlin 2-no                           
   RPACOR =     .000    partial core radius                                     
   POMASS =   16.000; ZVAL   =    6.000    mass and valenz                      
   RCORE  =    1.520    outmost cutoff radius                                   
   RWIGS  =    1.550; RWIGS  =     .820    wigner-seitz radius (au A)           
   ENMAX  =  400.000; ENMIN  =  300.000 eV                                      
   ICORE  =        2    local potential                                         
   LCOR   =        T    correct aug charges                                     
   LPAW   =        T    paw PP                                                  
   EAUG   =  605.392                                                            
   DEXC   =     .000                                                            
   RMAX   =    2.264    core radius for proj-oper                               
   RAUG   =    1.300    factor for augmentation sphere                          
   RDEP   =    1.550    radius for radial grids                                 
   QCUT   =   -5.520; QGAM   =   11.041    optimization parameters              
                                                                                
   Description                                                                  
     l     E      TYP  RCUT    TYP  RCUT                                        
     0   .000     23  1.200                                                     
     0  -.700     23  1.200                                                     
     1   .000     23  1.520                                                     
     1   .600     23  1.520                                                     
     2   .000      7  1.500                                                     
  local pseudopotential read in
  atomic valenz-charges read in
  non local Contribution for L=           0  read in
    real space projection operators read in
  non local Contribution for L=           0  read in
    real space projection operators read in
  non local Contribution for L=           1  read in
    real space projection operators read in
  non local Contribution for L=           1  read in
    real space projection operators read in
    PAW grid and wavefunctions read in
 
   number of l-projection  operators is LMAX  =           4
   number of lm-projection operators is LMMAX =           8
 

 ----------------------------------------------------------------------------- 
|                                                                             |
|  ADVICE TO THIS USER RUNNING 'VASP/VAMP'   (HEAR YOUR MASTER'S VOICE ...):  |
|                                                                             |
|      You have a (more or less) 'small supercell' and for smaller cells      |
|      it is recommended  to use the reciprocal-space projection scheme!      |
|      The real space optimization is not  efficient for small cells and it   |
|      is also less accurate ...                                              |
|      Therefore set LREAL=.FALSE. in the  INCAR file                         |
|                                                                             |
 ----------------------------------------------------------------------------- 

 Optimization of the real space projectors (new method)

 maximal supplied QI-value         = 24.76
 optimisation between [QCUT,QGAM] = [ 10.64, 21.54] = [ 31.73,129.89] Ry 
 Optimized for a Real-space Cutoff    1.23 Angstroem

   l    n(q)    QCUT    max X(q) W(low)/X(q) W(high)/X(q)  e(spline) 
   0      8    10.645     4.192    0.69E-04    0.93E-04    0.58E-07
   0      8    10.645     8.473    0.40E-03    0.65E-03    0.17E-06
   1      7    10.645     2.474    0.80E-04    0.12E-03    0.30E-07
   1      7    10.645     3.912    0.24E-03    0.53E-03    0.16E-06
 PAW_PBE O 08Apr2002                    :
 energy of atom  1       EATOM= -432.3788
 kinetic energy error for atom=    0.0389 (will be added to EATOM!!)
 
 
 POSCAR: POSCAR                                  
  positions in direct lattice
  velocities in cartesian coordinates
 exchange correlation table for  LEXCH =        8
   RHO(1)=    0.500       N(1)  =     2000
   RHO(2)=  100.500       N(2)  =     4000
 


--------------------------------------------------------------------------------------------------------


 ion  position               nearest neighbor table
   1  0.441  0.506  0.502-   2 1.23
   2  0.578  0.503  0.496-   1 1.23
 
  LATTYP: Found a simple orthorhombic cell.
 ALAT       =     9.0000000000
 B/A-ratio  =     1.1111111111
 C/A-ratio  =     1.2222222222
  
  Lattice vectors:
  
 A1 = (   9.0000000000,   0.0000000000,   0.0000000000)
 A2 = (   0.0000000000,  10.0000000000,   0.0000000000)
 A3 = (   0.0000000000,   0.0000000000,  11.0000000000)


Analysis of symmetry for initial positions (statically):
=====================================================================
 Subroutine PRICEL returns:
 Original cell was already a primitive cell.
 

 Routine SETGRP: Setting up the symmetry group for a 
 simple orthorhombic supercell.


 Subroutine GETGRP returns: Found  2 space group operations
 (whereof  1 operations were pure point group operations)
 out of a pool of  8 trial point group operations.


The static configuration has the point symmetry C_1 .
 The point group associated with its full space group is S_2 .


Analysis of symmetry for dynamics (positions and initial velocities):
=====================================================================
 Subroutine PRICEL returns:
 Original cell was already a primitive cell.
 

 Routine SETGRP: Setting up the symmetry group for a 
 simple orthorhombic supercell.


 Subroutine GETGRP returns: Found  2 space group operations
 (whereof  1 operations were pure point group operations)
 out of a pool of  8 trial point group operations.


The dynamic configuration has the point symmetry C_1 .
 The point group associated with its full space group is S_2 .


Analysis of constrained symmetry for selective dynamics:
=====================================================================
 Subroutine PRICEL returns:
 Original cell was already a primitive cell.
 

 Routine SETGRP: Setting up the symmetry group for a 
 simple orthorhombic supercell.


 Subroutine GETGRP returns: Found  2 space group operations
 (whereof  1 operations were pure point group operations)
 out of a pool of  8 trial point group operations.


The constrained configuration has the point symmetry C_1 .
 The point group associated with its full space group is S_2 .


Analysis of structural, dynamic, and magnetic symmetry:
=====================================================================
 Subroutine PRICEL returns:
 Original cell was already a primitive cell.
 

 Routine SETGRP: Setting up the symmetry group for a 
 simple orthorhombic supercell.


 Subroutine GETGRP returns: Found  2 space group operations
 (whereof  1 operations were pure point group operations)
 out of a pool of  8 trial point group operations.


The magnetic configuration has the point symmetry C_1 .
 The point group associated with its full space group is S_2 .


 Subroutine INISYM returns: Found  2 space group operations
 (whereof  1 operations are pure point group operations),
 and found     1 'primitive' translations

 
 
 KPOINTS: Gamma                                   

Automatic generation of k-mesh.
Space group operators:
 irot       det(A)        alpha          n_x          n_y          n_z        tau_x        tau_y        tau_z
    1     1.000000     0.000000     1.000000     0.000000     0.000000     0.000000     0.000000     0.000000
    2    -1.000000     0.000000     1.000000     0.000000     0.000000     0.019510     0.008960     0.998820
 
 Subroutine IBZKPT returns following result:
 ===========================================
 
 Found      1 irreducible k-points:
 
 Following reciprocal coordinates:
            Coordinates               Weight
  0.000000  0.000000  0.000000      1.000000
 
 Following cartesian coordinates:
            Coordinates               Weight
  0.000000  0.000000  0.000000      1.000000
 
 
 Subroutine IBZKPT_HF returns following result:
 ==============================================
 
 Found      1 k-points in 1st BZ
 the following      1 k-points will be used (e.g. in the exchange kernel)
 Following reciprocal coordinates:   # in IRBZ
  0.000000  0.000000  0.000000    1.00000000   1 t-inv F


--------------------------------------------------------------------------------------------------------




 Dimension of arrays:
   k-points           NKPTS =      1   k-points in BZ     NKDIM =      1   number of bands    NBANDS=     28
   number of dos      NEDOS =    301   number of ions     NIONS =      2
   non local maximal  LDIM  =      4   non local SUM 2l+1 LMDIM =      8
   total plane-waves  NPLWV = 155520
   max r-space proj   IRMAX =   1265   max aug-charges    IRDMAX=   2237
   dimension x,y,z NGX =    48 NGY =   54 NGZ =   60
   dimension x,y,z NGXF=    96 NGYF=  108 NGZF=  120
   support grid    NGXF=    96 NGYF=  108 NGZF=  120
   ions per type =               2
   NGX,Y,Z   is equivalent  to a cutoff of   8.87,  8.98,  9.07 a.u.
   NGXF,Y,Z  is equivalent  to a cutoff of  17.73, 17.95, 18.14 a.u.

 SYSTEM =  unknown system                          
 POSCAR =  POSCAR                                  

 Startparameter for this run:
   NWRITE =      2    write-flag & timer
   PREC   = normal    normal or accurate (medium, high low for compatibility)
   ISTART =      0    job   : 0-new  1-cont  2-samecut
   ICHARG =      2    charge: 1-file 2-atom 10-const
   ISPIN  =      2    spin polarized calculation?
   LNONCOLLINEAR =      F non collinear calculations
   LSORBIT =      F    spin-orbit coupling
   INIWAV =      1    electr: 0-lowe 1-rand  2-diag
   LASPH  =      F    aspherical Exc in radial PAW
   METAGGA=      F    non-selfconsistent MetaGGA calc.

 Electronic Relaxation 1
   ENCUT  =  450.0 eV  33.07 Ry    5.75 a.u.  15.57 17.30 19.03*2*pi/ulx,y,z
   ENINI  =  450.0     initial cutoff
   ENAUG  =  605.4 eV  augmentation charge cutoff
   NELM   =    200;   NELMIN=  2; NELMDL= -5     # of ELM steps 
   EDIFF  = 0.5E-05   stopping-criterion for ELM
   LREAL  =      T    real-space projection
   NLSPLINE    = F    spline interpolate recip. space projectors
   LCOMPAT=      F    compatible to vasp.4.4
   GGA_COMPAT  = T    GGA compatible to vasp.4.4-vasp.4.6
   LMAXPAW     = -100 max onsite density
   LMAXMIX     =    2 max onsite mixed and CHGCAR
   VOSKOWN=      0    Vosko Wilk Nusair interpolation
   ROPT   =   -0.00050
 Ionic relaxation
   EDIFFG = -.1E-01   stopping-criterion for IOM
   NSW    =     61    number of steps for IOM
   NBLOCK =      1;   KBLOCK =     61    inner block; outer block 
   IBRION =      5    ionic relax: 0-MD 1-quasi-New 2-CG
   NFREE  =      2    steps in history (QN), initial steepest desc. (CG)
   ISIF   =      2    stress and relaxation
   IWAVPR =     11    prediction:  0-non 1-charg 2-wave 3-comb
   ISYM   =      2    0-nonsym 1-usesym 2-fastsym
   LCORR  =      T    Harris-Foulkes like correction to forces

   POTIM  = 0.0200    time-step for ionic-motion
   TEIN   =    0.0    initial temperature
   TEBEG  =    0.0;   TEEND  =   0.0 temperature during run
   SMASS  =  -3.00    Nose mass-parameter (am)
   estimated Nose-frequenzy (Omega)   =  0.10E-29 period in steps =****** mass=  -0.185E-26a.u.
   SCALEE = 1.0000    scale energy and forces
   NPACO  =    256;   APACO  = 16.0  distance and # of slots for P.C.
   PSTRESS=    0.0 pullay stress

  Mass of Ions in am
   POMASS =  16.00
  Ionic Valenz
   ZVAL   =   6.00
  Atomic Wigner-Seitz radii
   RWIGS  =  -1.00
  virtual crystal weights 
   VCA    =   1.00
   NELECT =      12.0000    total number of electrons
   NUPDOWN=      -1.0000    fix difference up-down

 DOS related values:
   EMIN   =  10.00;   EMAX   =-10.00  energy-range for DOS
   EFERMI =   0.00
   ISMEAR =     0;   SIGMA  =   0.01  broadening in eV -4-tet -1-fermi 0-gaus

 Electronic relaxation 2 (details)
   IALGO  =     68    algorithm
   LDIAG  =      T    sub-space diagonalisation (order eigenvalues)
   LSUBROT=      F    optimize rotation matrix (better conditioning)
   TURBO    =      0    0=normal 1=particle mesh
   IRESTART =      0    0=no restart 2=restart with 2 vectors
   NREBOOT  =      0    no. of reboots
   NMIN     =      0    reboot dimension
   EREF     =   0.00    reference energy to select bands
   IMIX   =      4    mixing-type and parameters
     AMIX     =   0.40;   BMIX     =  1.00
     AMIX_MAG =   1.60;   BMIX_MAG =  1.00
     AMIN     =   0.10
     WC   =   100.;   INIMIX=   1;  MIXPRE=   1;  MAXMIX= -45

 Intra band minimization:
   WEIMIN = 0.0010     energy-eigenvalue tresh-hold
   EBREAK =  0.45E-07  absolut break condition
   DEPER  =   0.30     relativ break condition  

   TIME   =   0.40     timestep for ELM

  volume/ion in A,a.u.               =     495.00      3340.42
  Fermi-wavevector in a.u.,A,eV,Ry     =   0.376060  0.710650  1.924149  0.141421
  Thomas-Fermi vector in A             =   1.307622
 
 Write flags
   LWAVE        =      F    write WAVECAR
   LDOWNSAMPLE  =      F    k-point downsampling of WAVECAR
   LCHARG       =      F    write CHGCAR
   LVTOT        =      F    write LOCPOT, total local potential
   LVHAR        =      F    write LOCPOT, Hartree potential only
   LELF         =      F    write electronic localiz. function (ELF)
   LORBIT       =     11    0 simple, 1 ext, 2 COOP (PROOUT), +10 PAW based schemes


 Dipole corrections
   LMONO  =      F    monopole corrections only (constant potential shift)
   LDIPOL =      F    correct potential (dipole corrections)
   IDIPOL =      0    1-x, 2-y, 3-z, 4-all directions 
   EPSILON=  1.0000000 bulk dielectric constant

 Exchange correlation treatment:
   GGA     =    --    GGA type
   LEXCH   =     8    internal setting for exchange type
   VOSKOWN=      0    Vosko Wilk Nusair interpolation
   LHFCALC =     F    Hartree Fock is set to
   LHFONE  =     F    Hartree Fock one center treatment
   AEXX    =    0.0000 exact exchange contribution

 Linear response parameters
   LEPSILON=     F    determine dielectric tensor
   LRPA    =     F    only Hartree local field effects (RPA)
   LNABLA  =     F    use nabla operator in PAW spheres
   LVEL    =     F    velocity operator in full k-point grid
   LINTERFAST=   F  fast interpolation
   KINTER  =     0    interpolate to denser k-point grid
   CSHIFT  =0.1000    complex shift for real part using Kramers Kronig
   OMEGAMAX=  -1.0    maximum frequency
   DEG_THRESHOLD= 0.2000000E-02 threshold for treating states as degnerate
   RTIME   =   -0.100 relaxation time in fs
  (WPLASMAI=    0.000 imaginary part of plasma frequency in eV, 0.658/RTIME)
   DFIELD  = 0.0000000 0.0000000 0.0000000 field for delta impulse in time
 
 Orbital magnetization related:
   ORBITALMAG=     F  switch on orbital magnetization
   LCHIMAG   =     F  perturbation theory with respect to B field
   DQ        =  0.001000  dq finite difference perturbation B field
   LLRAUG    =     F  two centre corrections for induced B field



--------------------------------------------------------------------------------------------------------


 finite differences
   using selective dynamics as specified on POSCAR
 charge density and potential will be updated during run
 spin polarized calculation
 RMM-DIIS sequential band-by-band and
  variant of blocked Davidson during initial phase
 perform sub-space diagonalisation
    before iterative eigenvector-optimisation
 modified Broyden-mixing scheme, WC =      100.0
 initial mixing is a Kerker type mixing with AMIX =  0.4000 and BMIX =      1.0000
 Hartree-type preconditioning will be used
 using additional bands           22
 real space projection scheme for non local part
 calculate Harris-corrections to forces 
   (improved forces if not selfconsistent)
 use gradient corrections 
 use of overlap-Matrix (Vanderbilt PP)
 Gauss-broadening in eV      SIGMA  =   0.01


--------------------------------------------------------------------------------------------------------


  energy-cutoff  :      450.00
  volume of cell :      990.00
      direct lattice vectors                 reciprocal lattice vectors
     9.000000000  0.000000000  0.000000000     0.111111111  0.000000000  0.000000000
     0.000000000 10.000000000  0.000000000     0.000000000  0.100000000  0.000000000
     0.000000000  0.000000000 11.000000000     0.000000000  0.000000000  0.090909091

  length of vectors
     9.000000000 10.000000000 11.000000000     0.111111111  0.100000000  0.090909091


 
 k-points in units of 2pi/SCALE and weight: Gamma                                   
   0.00000000  0.00000000  0.00000000       1.000
 
 k-points in reciprocal lattice and weights: Gamma                                   
   0.00000000  0.00000000  0.00000000       1.000
 
 position of ions in fractional coordinates (direct lattice) 
   0.44135031  0.50558477  0.50249870
   0.57815969  0.50337523  0.49632130
 
 position of ions in cartesian coordinates  (Angst):
   3.97215282  5.05584775  5.52748570
   5.20343718  5.03375225  5.45953430
 


--------------------------------------------------------------------------------------------------------


 k-point  1 :   0.0000 0.0000 0.0000  plane waves:   21487

 maximum and minimum number of plane-waves per node :     21487    21487

 maximum number of plane-waves:     21487
 maximum index in each direction: 
   IXMAX=   15   IYMAX=   17   IZMAX=   19
   IXMIN=  -15   IYMIN=  -17   IZMIN=  -19


 serial   3D FFT for wavefunctions
 parallel 3D FFT for charge:
    minimum data exchange during FFTs selected (reduces bandwidth)


 total amount of memory used by VASP MPI-rank0    49560. kBytes
=======================================================================

   base      :      30000. kBytes
   nonlr-proj:        207. kBytes
   fftplans  :       2347. kBytes
   grid      :      16305. kBytes
   one-center:         12. kBytes
   wavefun   :        689. kBytes
 
     INWAV:  cpu time    0.0000: real time    0.0000
 Broyden mixing: mesh for mixing (old mesh)
   NGX = 31   NGY = 35   NGZ = 39
  (NGX  = 96   NGY  =108   NGZ  =120)
  gives a total of  42315 points

 initial charge density was supplied:
 charge density of overlapping atoms calculated
 number of electron      12.0000000 magnetization       4.0000000
 keeping initial charge density in first step


--------------------------------------------------------------------------------------------------------


 Maximum index for non-local projection operator         1187
 Maximum index for augmentation-charges          193 (set IRDMAX)


--------------------------------------------------------------------------------------------------------


 First call to EWALD:  gamma=   0.178
 Maximum number of real-space cells 3x 3x 3
 Maximum number of reciprocal cells 3x 3x 3

    FEWALD:  cpu time    0.0015: real time    0.0017


--------------------------------------- Iteration      1(   1)  ---------------------------------------


    POTLOK:  cpu time    0.0865: real time    0.0897
    SETDIJ:  cpu time    0.0036: real time    0.0036
     EDDAV:  cpu time    0.1173: real time    0.1174
       DOS:  cpu time    0.0010: real time    0.0011
    --------------------------------------------
      LOOP:  cpu time    0.2085: real time    0.2117

 eigenvalue-minimisations  :   140
 total energy-change (2. order) : 0.8197813E+02  (-0.3119451E+03)
 number of electron      12.0000000 magnetization       4.0000000
 augmentation part       12.0000000 magnetization       4.0000000

 Free energy of the ion-electron system (eV)
  ---------------------------------------------------
  alpha Z        PSCENC =         0.56134412
  Ewald energy   TEWEN  =       130.73572915
  -Hartree energ DENC   =      -859.09345099
  -exchange      EXHF   =         0.00000000
  -V(xc)+E(xc)   XCENC  =        55.66203402
  PAW double counting   =       490.91431918     -494.57108051
  entropy T*S    EENTRO =        -0.00000000
  eigenvalues    EBANDS =      -106.91048302
  atomic energy  EATOM  =       864.67971496
  Solvation  Ediel_sol  =         0.00000000
  ---------------------------------------------------
  free energy    TOTEN  =        81.97812691 eV

  energy without entropy =       81.97812691  energy(sigma->0) =       81.97812691


--------------------------------------------------------------------------------------------------------




--------------------------------------- Iteration      1(   2)  ---------------------------------------


     EDDAV:  cpu time    0.1793: real time    0.1870
       DOS:  cpu time    0.0007: real time    0.0007
    --------------------------------------------
      LOOP:  cpu time    0.1800: real time    0.1876

 eigenvalue-minimisations  :   224
 total energy-change (2. order) :-0.9005706E+02  (-0.8688082E+02)
 number of electron      12.0000000 magnetization       4.0000000
 augmentation part       12.0000000 magnetization       4.0000000

 Free energy of the ion-electron system (eV)
  ---------------------------------------------------
  alpha Z        PSCENC =         0.56134412
  Ewald energy   TEWEN  =       130.73572915
  -Hartree energ DENC   =      -859.09345099
  -exchange      EXHF   =         0.00000000
  -V(xc)+E(xc)   XCENC  =        55.66203402
  PAW double counting   =       490.91431918     -494.57108051
  entropy T*S    EENTRO =        -0.00000000
  eigenvalues    EBANDS =      -196.96754625
  atomic energy  EATOM  =       864.67971496
  Solvation  Ediel_sol  =         0.00000000
  ---------------------------------------------------
  free energy    TOTEN  =        -8.07893632 eV

  energy without entropy =       -8.07893632  energy(sigma->0) =       -8.07893632


--------------------------------------------------------------------------------------------------------




--------------------------------------- Iteration      1(   3)  ---------------------------------------


     EDDAV:  cpu time    0.0924: real time    0.0927
       DOS:  cpu time    0.0004: real time    0.0004
    --------------------------------------------
      LOOP:  cpu time    0.0929: real time    0.0931

 eigenvalue-minimisations  :   112
 total energy-change (2. order) :-0.9576939E+00  (-0.9576939E+00)
 number of electron      12.0000000 magnetization       4.0000000
 augmentation part       12.0000000 magnetization       4.0000000

 Free energy of the ion-electron system (eV)
  ---------------------------------------------------
  alpha Z        PSCENC =         0.56134412
  Ewald energy   TEWEN  =       130.73572915
  -Hartree energ DENC   =      -859.09345099
  -exchange      EXHF   =         0.00000000
  -V(xc)+E(xc)   XCENC  =        55.66203402
  PAW double counting   =       490.91431918     -494.57108051
  entropy T*S    EENTRO =        -0.00000000
  eigenvalues    EBANDS =      -197.92524020
  atomic energy  EATOM  =       864.67971496
  Solvation  Ediel_sol  =         0.00000000
  ---------------------------------------------------
  free energy    TOTEN  =        -9.03663027 eV

  energy without entropy =       -9.03663027  energy(sigma->0) =       -9.03663027


--------------------------------------------------------------------------------------------------------




--------------------------------------- Iteration      1(   4)  ---------------------------------------


     EDDAV:  cpu time    0.1354: real time    0.1356
       DOS:  cpu time    0.0007: real time    0.0007
    --------------------------------------------
      LOOP:  cpu time    0.1361: real time    0.1362

 eigenvalue-minimisations  :   168
 total energy-change (2. order) :-0.6128871E-02  (-0.6128871E-02)
 number of electron      12.0000000 magnetization       4.0000000
 augmentation part       12.0000000 magnetization       4.0000000

 Free energy of the ion-electron system (eV)
  ---------------------------------------------------
  alpha Z        PSCENC =         0.56134412
  Ewald energy   TEWEN  =       130.73572915
  -Hartree energ DENC   =      -859.09345099
  -exchange      EXHF   =         0.00000000
  -V(xc)+E(xc)   XCENC  =        55.66203402
  PAW double counting   =       490.91431918     -494.57108051
  entropy T*S    EENTRO =        -0.00000000
  eigenvalues    EBANDS =      -197.93136907
  atomic energy  EATOM  =       864.67971496
  Solvation  Ediel_sol  =         0.00000000
  ---------------------------------------------------
  free energy    TOTEN  =        -9.04275914 eV

  energy without entropy =       -9.04275914  energy(sigma->0) =       -9.04275914


--------------------------------------------------------------------------------------------------------




--------------------------------------- Iteration      1(   5)  ---------------------------------------


     EDDAV:  cpu time    0.1359: real time    0.1360
       DOS:  cpu time    0.0006: real time    0.0006
    CHARGE:  cpu time    0.0431: real time    0.0431
    MIXING:  cpu time    0.0016: real time    0.0017
    --------------------------------------------
      LOOP:  cpu time    0.1812: real time    0.1814

 eigenvalue-minimisations  :   168
 total energy-change (2. order) :-0.2650174E-04  (-0.2650180E-04)
 number of electron      12.0000064 magnetization       3.2127864
 augmentation part        1.1745904 magnetization       1.7196120

 Broyden mixing:
  rms(total) = 0.10349E+01    rms(broyden)= 0.10324E+01
  rms(prec ) = 0.10550E+01
  weight for this iteration     100.00

 Free energy of the ion-electron system (eV)
  ---------------------------------------------------
  alpha Z        PSCENC =         0.56134412
  Ewald energy   TEWEN  =       130.73572915
  -Hartree energ DENC   =      -859.09345099
  -exchange      EXHF   =         0.00000000
  -V(xc)+E(xc)   XCENC  =        55.66203402
  PAW double counting   =       490.91431918     -494.57108051
  entropy T*S    EENTRO =        -0.00000000
  eigenvalues    EBANDS =      -197.93139557
  atomic energy  EATOM  =       864.67971496
  Solvation  Ediel_sol  =         0.00000000
  ---------------------------------------------------
  free energy    TOTEN  =        -9.04278564 eV

  energy without entropy =       -9.04278564  energy(sigma->0) =       -9.04278564


--------------------------------------------------------------------------------------------------------




--------------------------------------- Iteration      1(   6)  ---------------------------------------


    POTLOK:  cpu time    0.0669: real time    0.0670
    SETDIJ:  cpu time    0.0035: real time    0.0035
    EDDIAG:  cpu time    0.0248: real time    0.0263
  RMM-DIIS:  cpu time    0.0831: real time    0.0831
    ORTHCH:  cpu time    0.0022: real time    0.0022
       DOS:  cpu time    0.0001: real time    0.0001
    CHARGE:  cpu time    0.0407: real time    0.0407
    MIXING:  cpu time    0.0015: real time    0.0016
    --------------------------------------------
      LOOP:  cpu time    0.2228: real time    0.2245

 eigenvalue-minimisations  :   112
 total energy-change (2. order) : 0.4944103E+01  (-0.4276775E+00)
 number of electron      12.0000064 magnetization       2.8036672
 augmentation part        1.1682249 magnetization       1.2765894

 Broyden mixing:
  rms(total) = 0.37929E+00    rms(broyden)= 0.37892E+00
  rms(prec ) = 0.40108E+00
  weight for this iteration     100.00

 eigenvalues of (default mixing * dielectric matrix)
  average eigenvalue GAMMA=   0.8011
  0.8011

 Free energy of the ion-electron system (eV)
  ---------------------------------------------------
  alpha Z        PSCENC =         0.56134412
  Ewald energy   TEWEN  =       130.73572915
  -Hartree energ DENC   =      -862.84365333
  -exchange      EXHF   =         0.00000000
  -V(xc)+E(xc)   XCENC  =        59.86227547
  PAW double counting   =       524.04062624     -527.71073692
  entropy T*S    EENTRO =        -0.00000000
  eigenvalues    EBANDS =      -193.42398271
  atomic energy  EATOM  =       864.67971496
  Solvation  Ediel_sol  =         0.00000000
  ---------------------------------------------------
  free energy    TOTEN  =        -4.09868302 eV

  energy without entropy =       -4.09868302  energy(sigma->0) =       -4.09868302


--------------------------------------------------------------------------------------------------------




--------------------------------------- Iteration      1(   7)  ---------------------------------------


    POTLOK:  cpu time    0.0660: real time    0.0662
    SETDIJ:  cpu time    0.0036: real time    0.0036
    EDDIAG:  cpu time    0.0217: real time    0.0217
  RMM-DIIS:  cpu time    0.0807: real time    0.0807
    ORTHCH:  cpu time    0.0032: real time    0.0032
       DOS:  cpu time    0.0002: real time    0.0002
    CHARGE:  cpu time    0.0445: real time    0.0480
    MIXING:  cpu time    0.0017: real time    0.0017
    --------------------------------------------
      LOOP:  cpu time    0.2215: real time    0.2252

 eigenvalue-minimisations  :   112
 total energy-change (2. order) :-0.3929415E+01  (-0.1640827E+00)
 number of electron      12.0000062 magnetization       2.3860087
 augmentation part        1.1492338 magnetization       0.8641256

 Broyden mixing:
  rms(total) = 0.15788E+00    rms(broyden)= 0.15785E+00
  rms(prec ) = 0.16840E+00
  weight for this iteration     100.00

 eigenvalues of (default mixing * dielectric matrix)
  average eigenvalue GAMMA=   0.9216
  1.0888  0.7544

 Free energy of the ion-electron system (eV)
  ---------------------------------------------------
  alpha Z        PSCENC =         0.56134412
  Ewald energy   TEWEN  =       130.73572915
  -Hartree energ DENC   =      -866.66306195
  -exchange      EXHF   =         0.00000000
  -V(xc)+E(xc)   XCENC  =        57.00414399
  PAW double counting   =       542.88808223     -546.63736397
  entropy T*S    EENTRO =        -0.00000000
  eigenvalues    EBANDS =      -190.59668618
  atomic energy  EATOM  =       864.67971496
  Solvation  Ediel_sol  =         0.00000000
  ---------------------------------------------------
  free energy    TOTEN  =        -8.02809765 eV

  energy without entropy =       -8.02809765  energy(sigma->0) =       -8.02809765


--------------------------------------------------------------------------------------------------------




--------------------------------------- Iteration      1(   8)  ---------------------------------------


    POTLOK:  cpu time    0.0675: real time    0.0684
    SETDIJ:  cpu time    0.0036: real time    0.0036
    EDDIAG:  cpu time    0.0231: real time    0.0231
  RMM-DIIS:  cpu time    0.0813: real time    0.0814
    ORTHCH:  cpu time    0.0027: real time    0.0027
       DOS:  cpu time    0.0002: real time    0.0002
    CHARGE:  cpu time    0.0411: real time    0.0411
    MIXING:  cpu time    0.0016: real time    0.0016
    --------------------------------------------
      LOOP:  cpu time    0.2212: real time    0.2222

 eigenvalue-minimisations  :   112
 total energy-change (2. order) :-0.1357294E+01  (-0.5473625E-01)
 number of electron      12.0000062 magnetization       2.1846288
 augmentation part        1.1391855 magnetization       0.6714486

 Broyden mixing:
  rms(total) = 0.69607E-01    rms(broyden)= 0.69570E-01
  rms(prec ) = 0.74398E-01
  weight for this iteration     100.00

 eigenvalues of (default mixing * dielectric matrix)
  average eigenvalue GAMMA=   1.1049
  1.6623  0.9645  0.6880

 Free energy of the ion-electron system (eV)
  ---------------------------------------------------
  alpha Z        PSCENC =         0.56134412
  Ewald energy   TEWEN  =       130.73572915
  -Hartree energ DENC   =      -867.75095537
  -exchange      EXHF   =         0.00000000
  -V(xc)+E(xc)   XCENC  =        55.96455992
  PAW double counting   =       557.42616910     -561.13245157
  entropy T*S    EENTRO =        -0.00000000
  eigenvalues    EBANDS =      -189.86950150
  atomic energy  EATOM  =       864.67971496
  Solvation  Ediel_sol  =         0.00000000
  ---------------------------------------------------
  free energy    TOTEN  =        -9.38539119 eV

  energy without entropy =       -9.38539119  energy(sigma->0) =       -9.38539119


--------------------------------------------------------------------------------------------------------




--------------------------------------- Iteration      1(   9)  ---------------------------------------


    POTLOK:  cpu time    0.0661: real time    0.0662
    SETDIJ:  cpu time    0.0036: real time    0.0036
    EDDIAG:  cpu time    0.0215: real time    0.0215
  RMM-DIIS:  cpu time    0.0807: real time    0.0807
    ORTHCH:  cpu time    0.0027: real time    0.0027
       DOS:  cpu time    0.0001: real time    0.0001
    CHARGE:  cpu time    0.0408: real time    0.0408
    MIXING:  cpu time    0.0018: real time    0.0018
    --------------------------------------------
      LOOP:  cpu time    0.2174: real time    0.2175

 eigenvalue-minimisations  :   112
 total energy-change (2. order) :-0.3220430E+00  (-0.5494360E-02)
 number of electron      12.0000062 magnetization       2.0518648
 augmentation part        1.1384361 magnetization       0.5421121

 Broyden mixing:
  rms(total) = 0.29937E-01    rms(broyden)= 0.29925E-01
  rms(prec ) = 0.32454E-01
  weight for this iteration     100.00

 eigenvalues of (default mixing * dielectric matrix)
  average eigenvalue GAMMA=   1.1961
  1.9985  1.2539  0.8555  0.6767

 Free energy of the ion-electron system (eV)
  ---------------------------------------------------
  alpha Z        PSCENC =         0.56134412
  Ewald energy   TEWEN  =       130.73572915
  -Hartree energ DENC   =      -866.90917929
  -exchange      EXHF   =         0.00000000
  -V(xc)+E(xc)   XCENC  =        55.63215736
  PAW double counting   =       561.82880801     -565.52246898
  entropy T*S    EENTRO =        -0.00000000
  eigenvalues    EBANDS =      -190.71353951
  atomic energy  EATOM  =       864.67971496
  Solvation  Ediel_sol  =         0.00000000
  ---------------------------------------------------
  free energy    TOTEN  =        -9.70743417 eV

  energy without entropy =       -9.70743417  energy(sigma->0) =       -9.70743417


--------------------------------------------------------------------------------------------------------




--------------------------------------- Iteration      1(  10)  ---------------------------------------


    POTLOK:  cpu time    0.0662: real time    0.0663
    SETDIJ:  cpu time    0.0035: real time    0.0035
    EDDIAG:  cpu time    0.0216: real time    0.0216
  RMM-DIIS:  cpu time    0.0802: real time    0.0804
    ORTHCH:  cpu time    0.0027: real time    0.0027
       DOS:  cpu time    0.0001: real time    0.0001
    CHARGE:  cpu time    0.0408: real time    0.0408
    MIXING:  cpu time    0.0019: real time    0.0019
    --------------------------------------------
      LOOP:  cpu time    0.2171: real time    0.2174

 eigenvalue-minimisations  :   112
 total energy-change (2. order) :-0.1145090E+00  (-0.1600587E-02)
 number of electron      12.0000062 magnetization       2.0257179
 augmentation part        1.1400764 magnetization       0.5194870

 Broyden mixing:
  rms(total) = 0.10309E-01    rms(broyden)= 0.10280E-01
  rms(prec ) = 0.11102E-01
  weight for this iteration     100.00

 eigenvalues of (default mixing * dielectric matrix)
  average eigenvalue GAMMA=   1.1760
  2.2034  1.3581  0.9039  0.7451  0.6693

 Free energy of the ion-electron system (eV)
  ---------------------------------------------------
  alpha Z        PSCENC =         0.56134412
  Ewald energy   TEWEN  =       130.73572915
  -Hartree energ DENC   =      -866.07245072
  -exchange      EXHF   =         0.00000000
  -V(xc)+E(xc)   XCENC  =        55.48630995
  PAW double counting   =       564.24002653     -567.90356043
  entropy T*S    EENTRO =        -0.00000000
  eigenvalues    EBANDS =      -191.54905673
  atomic energy  EATOM  =       864.67971496
  Solvation  Ediel_sol  =         0.00000000
  ---------------------------------------------------
  free energy    TOTEN  =        -9.82194318 eV

  energy without entropy =       -9.82194318  energy(sigma->0) =       -9.82194318


--------------------------------------------------------------------------------------------------------




--------------------------------------- Iteration      1(  11)  ---------------------------------------


    POTLOK:  cpu time    0.0664: real time    0.0665
    SETDIJ:  cpu time    0.0036: real time    0.0036
    EDDIAG:  cpu time    0.0217: real time    0.0217
  RMM-DIIS:  cpu time    0.0808: real time    0.0808
    ORTHCH:  cpu time    0.0027: real time    0.0027
       DOS:  cpu time    0.0001: real time    0.0001
    CHARGE:  cpu time    0.0408: real time    0.0408
    MIXING:  cpu time    0.0020: real time    0.0020
    --------------------------------------------
      LOOP:  cpu time    0.2181: real time    0.2182

 eigenvalue-minimisations  :   112
 total energy-change (2. order) :-0.1828280E-01  (-0.1524039E-03)
 number of electron      12.0000062 magnetization       2.0042934
 augmentation part        1.1397971 magnetization       0.4984923

 Broyden mixing:
  rms(total) = 0.54365E-02    rms(broyden)= 0.54343E-02
  rms(prec ) = 0.61763E-02
  weight for this iteration     100.00

 eigenvalues of (default mixing * dielectric matrix)
  average eigenvalue GAMMA=   1.2397
  2.2576  1.4514  1.4514  0.9202  0.7020  0.6556

 Free energy of the ion-electron system (eV)
  ---------------------------------------------------
  alpha Z        PSCENC =         0.56134412
  Ewald energy   TEWEN  =       130.73572915
  -Hartree energ DENC   =      -866.06662532
  -exchange      EXHF   =         0.00000000
  -V(xc)+E(xc)   XCENC  =        55.47149680
  PAW double counting   =       564.94472456     -568.61126038
  entropy T*S    EENTRO =        -0.00000000
  eigenvalues    EBANDS =      -191.55534987
  atomic energy  EATOM  =       864.67971496
  Solvation  Ediel_sol  =         0.00000000
  ---------------------------------------------------
  free energy    TOTEN  =        -9.84022598 eV

  energy without entropy =       -9.84022598  energy(sigma->0) =       -9.84022598


--------------------------------------------------------------------------------------------------------




--------------------------------------- Iteration      1(  12)  ---------------------------------------


    POTLOK:  cpu time    0.0667: real time    0.0667
    SETDIJ:  cpu time    0.0036: real time    0.0036
    EDDIAG:  cpu time    0.0216: real time    0.0216
  RMM-DIIS:  cpu time    0.0760: real time    0.0810
    ORTHCH:  cpu time    0.0027: real time    0.0027
       DOS:  cpu time    0.0001: real time    0.0001
    CHARGE:  cpu time    0.0408: real time    0.0408
    MIXING:  cpu time    0.0021: real time    0.0021
    --------------------------------------------
      LOOP:  cpu time    0.2136: real time    0.2186

 eigenvalue-minimisations  :   112
 total energy-change (2. order) :-0.1389532E-01  (-0.3979114E-04)
 number of electron      12.0000062 magnetization       1.9995387
 augmentation part        1.1396924 magnetization       0.4941071

 Broyden mixing:
  rms(total) = 0.12721E-02    rms(broyden)= 0.12705E-02
  rms(prec ) = 0.18468E-02
  weight for this iteration     100.00

 eigenvalues of (default mixing * dielectric matrix)
  average eigenvalue GAMMA=   1.2764
  2.5019  1.8914  1.3935  0.9519  0.8566  0.6924  0.6473

 Free energy of the ion-electron system (eV)
  ---------------------------------------------------
  alpha Z        PSCENC =         0.56134412
  Ewald energy   TEWEN  =       130.73572915
  -Hartree energ DENC   =      -866.06862222
  -exchange      EXHF   =         0.00000000
  -V(xc)+E(xc)   XCENC  =        55.45724588
  PAW double counting   =       565.55037512     -569.21496830
  entropy T*S    EENTRO =        -0.00000000
  eigenvalues    EBANDS =      -191.55494000
  atomic energy  EATOM  =       864.67971496
  Solvation  Ediel_sol  =         0.00000000
  ---------------------------------------------------
  free energy    TOTEN  =        -9.85412130 eV

  energy without entropy =       -9.85412130  energy(sigma->0) =       -9.85412130


--------------------------------------------------------------------------------------------------------




--------------------------------------- Iteration      1(  13)  ---------------------------------------


    POTLOK:  cpu time    0.0662: real time    0.0663
    SETDIJ:  cpu time    0.0036: real time    0.0036
    EDDIAG:  cpu time    0.0216: real time    0.0216
  RMM-DIIS:  cpu time    0.0795: real time    0.0795
    ORTHCH:  cpu time    0.0021: real time    0.0021
       DOS:  cpu time    0.0001: real time    0.0001
    CHARGE:  cpu time    0.0413: real time    0.0413
    MIXING:  cpu time    0.0023: real time    0.0023
    --------------------------------------------
      LOOP:  cpu time    0.2166: real time    0.2167

 eigenvalue-minimisations  :   110
 total energy-change (2. order) :-0.1763436E-02  (-0.3182512E-05)
 number of electron      12.0000062 magnetization       1.9994172
 augmentation part        1.1397399 magnetization       0.4940233

 Broyden mixing:
  rms(total) = 0.50737E-03    rms(broyden)= 0.50709E-03
  rms(prec ) = 0.10722E-02
  weight for this iteration     100.00

 eigenvalues of (default mixing * dielectric matrix)
  average eigenvalue GAMMA=   1.2350
  2.5535  1.8936  1.4100  0.9850  0.9850  0.7401  0.6772  0.6357

 Free energy of the ion-electron system (eV)
  ---------------------------------------------------
  alpha Z        PSCENC =         0.56134412
  Ewald energy   TEWEN  =       130.73572915
  -Hartree energ DENC   =      -866.02817487
  -exchange      EXHF   =         0.00000000
  -V(xc)+E(xc)   XCENC  =        55.45315922
  PAW double counting   =       565.62189921     -569.28664629
  entropy T*S    EENTRO =        -0.00000000
  eigenvalues    EBANDS =      -191.59291023
  atomic energy  EATOM  =       864.67971496
  Solvation  Ediel_sol  =         0.00000000
  ---------------------------------------------------
  free energy    TOTEN  =        -9.85588473 eV

  energy without entropy =       -9.85588473  energy(sigma->0) =       -9.85588473


--------------------------------------------------------------------------------------------------------




--------------------------------------- Iteration      1(  14)  ---------------------------------------


    POTLOK:  cpu time    0.0664: real time    0.0664
    SETDIJ:  cpu time    0.0036: real time    0.0036
    EDDIAG:  cpu time    0.0223: real time    0.0223
  RMM-DIIS:  cpu time    0.0795: real time    0.0798
    ORTHCH:  cpu time    0.0022: real time    0.0022
       DOS:  cpu time    0.0001: real time    0.0001
    CHARGE:  cpu time    0.0413: real time    0.0413
    MIXING:  cpu time    0.0024: real time    0.0024
    --------------------------------------------
      LOOP:  cpu time    0.2176: real time    0.2180

 eigenvalue-minimisations  :   106
 total energy-change (2. order) :-0.1773344E-03  (-0.7758465E-06)
 number of electron      12.0000062 magnetization       1.9998018
 augmentation part        1.1397662 magnetization       0.4944326

 Broyden mixing:
  rms(total) = 0.34554E-03    rms(broyden)= 0.34542E-03
  rms(prec ) = 0.80045E-03
  weight for this iteration     100.00

 eigenvalues of (default mixing * dielectric matrix)
  average eigenvalue GAMMA=   1.2643
  2.5968  1.9637  1.6290  1.2971  0.9432  0.9432  0.7147  0.6665  0.6246

 Free energy of the ion-electron system (eV)
  ---------------------------------------------------
  alpha Z        PSCENC =         0.56134412
  Ewald energy   TEWEN  =       130.73572915
  -Hartree energ DENC   =      -866.00743429
  -exchange      EXHF   =         0.00000000
  -V(xc)+E(xc)   XCENC  =        55.45171195
  PAW double counting   =       565.61215621     -569.27657585
  entropy T*S    EENTRO =        -0.00000000
  eigenvalues    EBANDS =      -191.61270831
  atomic energy  EATOM  =       864.67971496
  Solvation  Ediel_sol  =         0.00000000
  ---------------------------------------------------
  free energy    TOTEN  =        -9.85606207 eV

  energy without entropy =       -9.85606207  energy(sigma->0) =       -9.85606207


--------------------------------------------------------------------------------------------------------




--------------------------------------- Iteration      1(  15)  ---------------------------------------


    POTLOK:  cpu time    0.0661: real time    0.0662
    SETDIJ:  cpu time    0.0036: real time    0.0036
    EDDIAG:  cpu time    0.0215: real time    0.0215
  RMM-DIIS:  cpu time    0.0797: real time    0.0797
    ORTHCH:  cpu time    0.0021: real time    0.0021
       DOS:  cpu time    0.0001: real time    0.0001
    CHARGE:  cpu time    0.0412: real time    0.0412
    MIXING:  cpu time    0.0026: real time    0.0026
    --------------------------------------------
      LOOP:  cpu time    0.2169: real time    0.2170

 eigenvalue-minimisations  :   106
 total energy-change (2. order) :-0.1619307E-03  (-0.7584789E-06)
 number of electron      12.0000062 magnetization       2.0000523
 augmentation part        1.1397696 magnetization       0.4946841

 Broyden mixing:
  rms(total) = 0.18285E-03    rms(broyden)= 0.18280E-03
  rms(prec ) = 0.49819E-03
  weight for this iteration     100.00

 eigenvalues of (default mixing * dielectric matrix)
  average eigenvalue GAMMA=   1.3299
  2.9158  2.4688  1.7893  1.3445  1.0022  1.0022  0.7891  0.6984  0.6314  0.6571

 Free energy of the ion-electron system (eV)
  ---------------------------------------------------
  alpha Z        PSCENC =         0.56134412
  Ewald energy   TEWEN  =       130.73572915
  -Hartree energ DENC   =      -865.99394282
  -exchange      EXHF   =         0.00000000
  -V(xc)+E(xc)   XCENC  =        55.45069641
  PAW double counting   =       565.60196964     -569.26646027
  entropy T*S    EENTRO =        -0.00000000
  eigenvalues    EBANDS =      -191.62527518
  atomic energy  EATOM  =       864.67971496
  Solvation  Ediel_sol  =         0.00000000
  ---------------------------------------------------
  free energy    TOTEN  =        -9.85622400 eV

  energy without entropy =       -9.85622400  energy(sigma->0) =       -9.85622400


--------------------------------------------------------------------------------------------------------




--------------------------------------- Iteration      1(  16)  ---------------------------------------


    POTLOK:  cpu time    0.0674: real time    0.0675
    SETDIJ:  cpu time    0.0036: real time    0.0036
    EDDIAG:  cpu time    0.0217: real time    0.0217
  RMM-DIIS:  cpu time    0.0799: real time    0.0799
    ORTHCH:  cpu time    0.0023: real time    0.0023
       DOS:  cpu time    0.0001: real time    0.0001
    CHARGE:  cpu time    0.0441: real time    0.0441
    MIXING:  cpu time    0.0033: real time    0.0033
    --------------------------------------------
      LOOP:  cpu time    0.2223: real time    0.2224

 eigenvalue-minimisations  :   102
 total energy-change (2. order) :-0.6570800E-04  (-0.2873214E-06)
 number of electron      12.0000062 magnetization       2.0001415
 augmentation part        1.1397553 magnetization       0.4947648

 Broyden mixing:
  rms(total) = 0.15268E-03    rms(broyden)= 0.15265E-03
  rms(prec ) = 0.37117E-03
  weight for this iteration     100.00

 eigenvalues of (default mixing * dielectric matrix)
  average eigenvalue GAMMA=   1.3540
  3.1474  2.5140  1.7407  1.3946  1.3946  0.9816  0.9816  0.7635  0.6913  0.6520
  0.6328

 Free energy of the ion-electron system (eV)
  ---------------------------------------------------
  alpha Z        PSCENC =         0.56134412
  Ewald energy   TEWEN  =       130.73572915
  -Hartree energ DENC   =      -866.00123200
  -exchange      EXHF   =         0.00000000
  -V(xc)+E(xc)   XCENC  =        55.45085269
  PAW double counting   =       565.60755960     -569.27213386
  entropy T*S    EENTRO =        -0.00000000
  eigenvalues    EBANDS =      -191.61812438
  atomic energy  EATOM  =       864.67971496
  Solvation  Ediel_sol  =         0.00000000
  ---------------------------------------------------
  free energy    TOTEN  =        -9.85628971 eV

  energy without entropy =       -9.85628971  energy(sigma->0) =       -9.85628971


--------------------------------------------------------------------------------------------------------




--------------------------------------- Iteration      1(  17)  ---------------------------------------


    POTLOK:  cpu time    0.0691: real time    0.0729
    SETDIJ:  cpu time    0.0036: real time    0.0036
    EDDIAG:  cpu time    0.0225: real time    0.0226
  RMM-DIIS:  cpu time    0.0799: real time    0.0799
    ORTHCH:  cpu time    0.0022: real time    0.0022
       DOS:  cpu time    0.0002: real time    0.0002
    CHARGE:  cpu time    0.0416: real time    0.0416
    MIXING:  cpu time    0.0031: real time    0.0031
    --------------------------------------------
      LOOP:  cpu time    0.2221: real time    0.2260

 eigenvalue-minimisations  :   105
 total energy-change (2. order) :-0.7182310E-04  (-0.5060253E-06)
 number of electron      12.0000062 magnetization       2.0000752
 augmentation part        1.1397352 magnetization       0.4946923

 Broyden mixing:
  rms(total) = 0.13832E-03    rms(broyden)= 0.13826E-03
  rms(prec ) = 0.20305E-03
  weight for this iteration     100.00

 eigenvalues of (default mixing * dielectric matrix)
  average eigenvalue GAMMA=   1.4497
  3.9673  2.5649  2.2117  1.7992  1.3002  1.0022  1.0022  0.8583  0.7285  0.6865
  0.6495  0.6254

 Free energy of the ion-electron system (eV)
  ---------------------------------------------------
  alpha Z        PSCENC =         0.56134412
  Ewald energy   TEWEN  =       130.73572915
  -Hartree energ DENC   =      -866.01918191
  -exchange      EXHF   =         0.00000000
  -V(xc)+E(xc)   XCENC  =        55.45122898
  PAW double counting   =       565.61699984     -569.28149910
  entropy T*S    EENTRO =        -0.00000000
  eigenvalues    EBANDS =      -191.60069758
  atomic energy  EATOM  =       864.67971496
  Solvation  Ediel_sol  =         0.00000000
  ---------------------------------------------------
  free energy    TOTEN  =        -9.85636153 eV

  energy without entropy =       -9.85636153  energy(sigma->0) =       -9.85636153


--------------------------------------------------------------------------------------------------------




--------------------------------------- Iteration      1(  18)  ---------------------------------------


    POTLOK:  cpu time    0.0670: real time    0.0673
    SETDIJ:  cpu time    0.0035: real time    0.0035
    EDDIAG:  cpu time    0.0216: real time    0.0216
  RMM-DIIS:  cpu time    0.0796: real time    0.0798
    ORTHCH:  cpu time    0.0022: real time    0.0022
       DOS:  cpu time    0.0001: real time    0.0001
    CHARGE:  cpu time    0.0408: real time    0.0408
    MIXING:  cpu time    0.0030: real time    0.0030
    --------------------------------------------
      LOOP:  cpu time    0.2179: real time    0.2183

 eigenvalue-minimisations  :   100
 total energy-change (2. order) :-0.3324527E-04  (-0.1294349E-06)
 number of electron      12.0000062 magnetization       2.0000141
 augmentation part        1.1397406 magnetization       0.4946428

 Broyden mixing:
  rms(total) = 0.57247E-04    rms(broyden)= 0.57227E-04
  rms(prec ) = 0.10254E-03
  weight for this iteration     100.00

 eigenvalues of (default mixing * dielectric matrix)
  average eigenvalue GAMMA=   1.5345
  5.0678  2.6093  2.3541  1.7531  1.3364  1.3364  1.0046  1.0046  0.8059  0.7226
  0.6805  0.6473  0.6261

 Free energy of the ion-electron system (eV)
  ---------------------------------------------------
  alpha Z        PSCENC =         0.56134412
  Ewald energy   TEWEN  =       130.73572915
  -Hartree energ DENC   =      -866.01870746
  -exchange      EXHF   =         0.00000000
  -V(xc)+E(xc)   XCENC  =        55.45103701
  PAW double counting   =       565.61039758     -569.27482915
  entropy T*S    EENTRO =        -0.00000000
  eigenvalues    EBANDS =      -191.60108098
  atomic energy  EATOM  =       864.67971496
  Solvation  Ediel_sol  =         0.00000000
  ---------------------------------------------------
  free energy    TOTEN  =        -9.85639477 eV

  energy without entropy =       -9.85639477  energy(sigma->0) =       -9.85639477


--------------------------------------------------------------------------------------------------------




--------------------------------------- Iteration      1(  19)  ---------------------------------------


    POTLOK:  cpu time    0.0669: real time    0.0670
    SETDIJ:  cpu time    0.0036: real time    0.0036
    EDDIAG:  cpu time    0.0218: real time    0.0218
  RMM-DIIS:  cpu time    0.0795: real time    0.0796
    ORTHCH:  cpu time    0.0022: real time    0.0022
       DOS:  cpu time    0.0001: real time    0.0001
    CHARGE:  cpu time    0.0407: real time    0.0407
    MIXING:  cpu time    0.0033: real time    0.0033
    --------------------------------------------
      LOOP:  cpu time    0.2180: real time    0.2181

 eigenvalue-minimisations  :    99
 total energy-change (2. order) :-0.3061621E-04  (-0.5346560E-07)
 number of electron      12.0000062 magnetization       1.9999932
 augmentation part        1.1397459 magnetization       0.4946236

 Broyden mixing:
  rms(total) = 0.56003E-04    rms(broyden)= 0.55979E-04
  rms(prec ) = 0.79875E-04
  weight for this iteration     100.00

 eigenvalues of (default mixing * dielectric matrix)
  average eigenvalue GAMMA=   1.6237
  6.3032  2.7305  2.4511  1.7865  1.7865  1.3351  0.9934  0.9616  0.9616  0.7623
  0.7132  0.6747  0.6261  0.6462

 Free energy of the ion-electron system (eV)
  ---------------------------------------------------
  alpha Z        PSCENC =         0.56134412
  Ewald energy   TEWEN  =       130.73572915
  -Hartree energ DENC   =      -866.01896068
  -exchange      EXHF   =         0.00000000
  -V(xc)+E(xc)   XCENC  =        55.45093311
  PAW double counting   =       565.60247905     -569.26688422
  entropy T*S    EENTRO =        -0.00000000
  eigenvalues    EBANDS =      -191.60078088
  atomic energy  EATOM  =       864.67971496
  Solvation  Ediel_sol  =         0.00000000
  ---------------------------------------------------
  free energy    TOTEN  =        -9.85642539 eV

  energy without entropy =       -9.85642539  energy(sigma->0) =       -9.85642539


--------------------------------------------------------------------------------------------------------




--------------------------------------- Iteration      1(  20)  ---------------------------------------


    POTLOK:  cpu time    0.0671: real time    0.0672
    SETDIJ:  cpu time    0.0036: real time    0.0036
    EDDIAG:  cpu time    0.0218: real time    0.0218
  RMM-DIIS:  cpu time    0.0794: real time    0.0794
    ORTHCH:  cpu time    0.0023: real time    0.0023
       DOS:  cpu time    0.0001: real time    0.0001
    --------------------------------------------
      LOOP:  cpu time    0.1743: real time    0.1744

 eigenvalue-minimisations  :    94
 total energy-change (2. order) :-0.3879643E-05  (-0.2453755E-07)
 number of electron      12.0000062 magnetization       1.9999932
 augmentation part        1.1397459 magnetization       0.4946236

 Free energy of the ion-electron system (eV)
  ---------------------------------------------------
  alpha Z        PSCENC =         0.56134412
  Ewald energy   TEWEN  =       130.73572915
  -Hartree energ DENC   =      -866.02286430
  -exchange      EXHF   =         0.00000000
  -V(xc)+E(xc)   XCENC  =        55.45104903
  PAW double counting   =       565.60249370     -569.26695154
  entropy T*S    EENTRO =        -0.00000000
  eigenvalues    EBANDS =      -191.59694439
  atomic energy  EATOM  =       864.67971496
  Solvation  Ediel_sol  =         0.00000000
  ---------------------------------------------------
  free energy    TOTEN  =        -9.85642927 eV

  energy without entropy =       -9.85642927  energy(sigma->0) =       -9.85642927


--------------------------------------------------------------------------------------------------------




 average (electrostatic) potential at core
  the test charge radii are     0.7215
  (the norm of the test charge is              1.0000)
       1 -83.7534       2 -83.7535
 
 
 
 E-fermi :  -6.7305     XC(G=0):  -0.5778     alpha+bet : -0.1513


 spin component 1

 k-point     1 :       0.0000    0.0000    0.0000
  band No.  band energies     occupation 
      1     -32.4500      1.00000
      2     -20.5661      1.00000
      3     -13.3378      1.00000
      4     -13.1947      1.00000
      5     -13.1944      1.00000
      6      -6.8764      1.00000
      7      -6.8764      1.00000
      8      -0.3139      0.00000
      9       0.9044      0.00000
     10       1.0167      0.00000
     11       1.0297      0.00000
     12       1.1137      0.00000
     13       1.3681      0.00000
     14       1.5887      0.00000
     15       2.3278      0.00000
     16       2.4344      0.00000
     17       2.4382      0.00000
     18       2.4670      0.00000
     19       2.6672      0.00000
     20       2.7405      0.00000
     21       2.9012      0.00000
     22       2.9425      0.00000
     23       2.9417      0.00000
     24       3.1582      0.00000
     25       3.1703      0.00000
     26       3.2186      0.00000
     27       3.6809      0.00000
     28       4.3435      0.00000

 spin component 2

 k-point     1 :       0.0000    0.0000    0.0000
  band No.  band energies     occupation 
      1     -31.2250      1.00000
      2     -18.7698      1.00000
      3     -12.4106      1.00000
      4     -11.3481      1.00000
      5     -11.3478      1.00000
      6      -4.5966      0.00000
      7      -4.5965      0.00000
      8      -0.1995      0.00000
      9       1.0222      0.00000
     10       1.0772      0.00000
     11       1.2443      0.00000
     12       1.3604      0.00000
     13       1.4399      0.00000
     14       1.6333      0.00000
     15       2.5053      0.00000
     16       2.5147      0.00000
     17       2.5148      0.00000
     18       2.5434      0.00000
     19       2.7285      0.00000
     20       2.8977      0.00000
     21       2.9370      0.00000
     22       2.9800      0.00000
     23       3.1266      0.00000
     24       3.2124      0.00000
     25       3.2581      0.00000
     26       3.2871      0.00000
     27       4.0579      0.00000
     28       4.3491      0.00000


--------------------------------------------------------------------------------------------------------


 soft charge-density along one line, spin component           1
         0         1         2         3         4         5         6         7         8         9
 total charge-density along one line
 
 soft charge-density along one line, spin component           2
         0         1         2         3         4         5         6         7         8         9
 total charge-density along one line
 
 pseudopotential strength for first ion, spin component:           1
 14.550  -0.651   0.002   0.007  -0.129  -0.000  -0.000   0.006
 -0.651   0.143  -0.000  -0.001   0.016   0.000   0.000  -0.003
  0.002  -0.000 -11.405  -0.000   0.000   0.526  -0.000   0.000
  0.007  -0.001  -0.000 -11.405   0.000  -0.000   0.526   0.001
 -0.129   0.016   0.000   0.000 -11.407   0.000   0.001   0.510
 -0.000   0.000   0.526  -0.000   0.000   0.052   0.000  -0.000
 -0.000   0.000  -0.000   0.526   0.001   0.000   0.052  -0.000
  0.006  -0.003   0.000   0.001   0.510  -0.000  -0.000   0.057
 pseudopotential strength for first ion, spin component:           2
 14.019  -0.569   0.002   0.007  -0.128  -0.000  -0.000   0.007
 -0.569   0.131  -0.000  -0.001   0.016   0.000   0.000  -0.003
  0.002  -0.000 -10.793  -0.000   0.007   0.372   0.000  -0.002
  0.007  -0.001  -0.000 -10.794   0.022   0.000   0.372  -0.005
 -0.128   0.016   0.007   0.022 -11.193  -0.002  -0.005   0.457
 -0.000   0.000   0.372   0.000  -0.002   0.102  -0.000   0.000
 -0.000   0.000   0.000   0.372  -0.005  -0.000   0.102   0.001
  0.007  -0.003  -0.002  -0.005   0.457   0.000   0.001   0.077
 total augmentation occupancy for first ion, spin component:           1
  1.951   0.074   0.003   0.011  -0.194  -0.001  -0.002   0.039
  0.074   0.056  -0.003  -0.011   0.190  -0.001  -0.004   0.066
  0.003  -0.003   1.527  -0.000   0.003   0.039   0.000  -0.004
  0.011  -0.011  -0.000   1.526   0.011   0.000   0.040  -0.012
 -0.194   0.190   0.003   0.011   1.335  -0.004  -0.012   0.256
 -0.001  -0.001   0.039   0.000  -0.004   0.016   0.000  -0.001
 -0.002  -0.004   0.000   0.040  -0.012   0.000   0.016  -0.004
  0.039   0.066  -0.004  -0.012   0.256  -0.001  -0.004   0.081
 total augmentation occupancy for first ion, spin component:           2
  0.024  -0.026  -0.000  -0.000   0.005   0.000   0.000  -0.006
 -0.026  -0.003   0.000  -0.000  -0.001   0.000   0.000  -0.002
 -0.000   0.000   0.573  -0.001   0.010  -0.072   0.000  -0.001
 -0.000  -0.000  -0.001   0.572   0.032   0.000  -0.072  -0.004
  0.005  -0.001   0.010   0.032   0.001  -0.001  -0.004  -0.008
  0.000   0.000  -0.072   0.000  -0.001   0.003  -0.000   0.000
  0.000   0.000   0.000  -0.072  -0.004  -0.000   0.003   0.000
 -0.006  -0.002  -0.001  -0.004  -0.008   0.000   0.000  -0.003


------------------------ aborting loop because EDIFF is reached ----------------------------------------


 


 total charge     
 
# of ion       s       p       d       tot
------------------------------------------
    1        1.621   3.278   0.000   4.899
    2        1.621   3.278   0.000   4.899
--------------------------------------------------
tot          3.243   6.555   0.000   9.798
 


 magnetization (x)
 
# of ion       s       p       d       tot
------------------------------------------
    1        0.010   0.802   0.000   0.812
    2        0.010   0.802   0.000   0.812
--------------------------------------------------
tot          0.020   1.603   0.000   1.623
 
    CHARGE:  cpu time    0.0414: real time    0.0414
    FORLOC:  cpu time    0.0012: real time    0.0012
    FORNL :  cpu time    0.0179: real time    0.0179
    STRESS:  cpu time    0.0528: real time    0.0528
    FORHAR:  cpu time    0.0069: real time    0.0069
    MIXING:  cpu time    0.0036: real time    0.0035
    OFIELD:  cpu time    0.0000: real time    0.0000

  FORCE on cell =-STRESS in cart. coord.  units (eV):
  Direction    XX          YY          ZZ          XY          YZ          ZX
  --------------------------------------------------------------------------------------
  Alpha Z     0.56134     0.56134     0.56134
  Ewald     355.76215   -98.18839  -126.83803    -7.40654     0.41103   -22.80320
  Hartree   450.63079   222.01812   193.37643    -3.37984     0.18878   -10.41902
  E(xc)     -57.92775   -59.08182   -59.07878    -0.02072     0.00114    -0.06372
  Local    -945.04441  -306.56689  -249.16395     9.99506    -0.55616    30.78861
  n-local   -47.36411   -43.78844   -43.80391     0.06389    -0.00386     0.19922
  augment    10.43277    12.99938    12.99274     0.04555    -0.00338     0.14221
  Kinetic   232.62834   271.60014   271.49086     0.69952    -0.03864     2.15128
  Fock        0.00000     0.00000     0.00000     0.00000     0.00000     0.00000
  -------------------------------------------------------------------------------------
  Total      -0.32087    -0.44656    -0.46330    -0.00308    -0.00108    -0.00462
  in kB      -0.51928    -0.72270    -0.74979    -0.00499    -0.00175    -0.00748
  external pressure =       -0.66 kB  Pullay stress =        0.00 kB


 VOLUME and BASIS-vectors are now :
 -----------------------------------------------------------------------------
  energy-cutoff  :      450.00
  volume of cell :      990.00
      direct lattice vectors                 reciprocal lattice vectors
     9.000000000  0.000000000  0.000000000     0.111111111  0.000000000  0.000000000
     0.000000000 10.000000000  0.000000000     0.000000000  0.100000000  0.000000000
     0.000000000  0.000000000 11.000000000     0.000000000  0.000000000  0.090909091

  length of vectors
     9.000000000 10.000000000 11.000000000     0.111111111  0.100000000  0.090909091


 FORCES acting on ions
    electron-ion (+dipol)            ewald-force                    non-local-force                 convergence-correction
 -----------------------------------------------------------------------------------------------
   0.284E+03 -.513E+01 -.158E+02   -.336E+03 0.606E+01 0.187E+02   0.518E+02 -.930E+00 -.286E+01   -.508E-03 0.500E-05 0.352E-04
   -.284E+03 0.513E+01 0.158E+02   0.336E+03 -.606E+01 -.187E+02   -.518E+02 0.930E+00 0.286E+01   0.508E-03 -.504E-05 -.352E-04
 -----------------------------------------------------------------------------------------------
   -.674E-04 -.149E-03 -.549E-04   0.000E+00 0.000E+00 0.000E+00   0.000E+00 0.000E+00 0.000E+00   0.290E-07 -.384E-07 0.102E-07
 
 
 POSITION                                       TOTAL-FORCE (eV/Angst)
 -----------------------------------------------------------------------------------
      3.97215      5.05585      5.52749         0.000172      0.000783      0.000471
      5.20344      5.03375      5.45953        -0.000172     -0.000783     -0.000471
 -----------------------------------------------------------------------------------
    total drift:                               -0.000067     -0.000149     -0.000055


--------------------------------------------------------------------------------------------------------



  FREE ENERGIE OF THE ION-ELECTRON SYSTEM (eV)
  ---------------------------------------------------
  free  energy   TOTEN  =        -9.85642927 eV

  energy  without entropy=       -9.85642927  energy(sigma->0) =       -9.85642927
 


--------------------------------------------------------------------------------------------------------


    POTLOK:  cpu time    0.0711: real time    0.0741


--------------------------------------------------------------------------------------------------------


 Finite differences:
   Step               POTIM =   2.000000000000000E-002
   Degrees of freedom DOF   =            6
  LATTYP: Found a simple orthorhombic cell.
 ALAT       =     9.0000000000
 B/A-ratio  =     1.1111111111
 C/A-ratio  =     1.2222222222
  
  Lattice vectors:
  
 A1 = (   9.0000000000,   0.0000000000,   0.0000000000)
 A2 = (   0.0000000000,  10.0000000000,   0.0000000000)
 A3 = (   0.0000000000,   0.0000000000,  11.0000000000)


Analysis of symmetry for initial positions (statically):
=====================================================================
 Subroutine PRICEL returns:
 Original cell was already a primitive cell.
 

 Routine SETGRP: Setting up the symmetry group for a 
 simple orthorhombic supercell.


 Subroutine GETGRP returns: Found  2 space group operations
 (whereof  1 operations were pure point group operations)
 out of a pool of  8 trial point group operations.


The static configuration has the point symmetry C_1 .
 The point group associated with its full space group is S_2 .


Analysis of symmetry for dynamics (positions and initial velocities):
=====================================================================
 Subroutine PRICEL returns:
 Original cell was already a primitive cell.
 

 Routine SETGRP: Setting up the symmetry group for a 
 simple orthorhombic supercell.


 Subroutine GETGRP returns: Found  2 space group operations
 (whereof  1 operations were pure point group operations)
 out of a pool of  8 trial point group operations.


The dynamic configuration has the point symmetry C_1 .
 The point group associated with its full space group is S_2 .


Analysis of constrained symmetry for selective dynamics:
=====================================================================
 Subroutine PRICEL returns:
 Original cell was already a primitive cell.
 

 Routine SETGRP: Setting up the symmetry group for a 
 simple orthorhombic supercell.


 Subroutine GETGRP returns: Found  2 space group operations
 (whereof  1 operations were pure point group operations)
 out of a pool of  8 trial point group operations.


The constrained configuration has the point symmetry C_1 .
 The point group associated with its full space group is S_2 .


Analysis of structural, dynamic, and magnetic symmetry:
=====================================================================
 Subroutine PRICEL returns:
 Original cell was already a primitive cell.
 

 Routine SETGRP: Setting up the symmetry group for a 
 simple orthorhombic supercell.


 Subroutine GETGRP returns: Found  2 space group operations
 (whereof  1 operations were pure point group operations)
 out of a pool of  8 trial point group operations.


The magnetic configuration has the point symmetry C_1 .
 The point group associated with its full space group is S_2 .


 Subroutine INISYM returns: Found  2 space group operations
 (whereof  1 operations are pure point group operations),
 and found     1 'primitive' translations

 
 KPOINTS: Gamma                                   

Automatic generation of k-mesh.
Space group operators:
 irot       det(A)        alpha          n_x          n_y          n_z        tau_x        tau_y        tau_z
    1     1.000000     0.000000     1.000000     0.000000     0.000000     0.000000     0.000000     0.000000
    2    -1.000000     0.000000     1.000000     0.000000     0.000000     0.021732     0.008960     0.998820
 
 Subroutine IBZKPT returns following result:
 ===========================================
 
 Found      1 irreducible k-points:
 
 Following reciprocal coordinates:
            Coordinates               Weight
  0.000000  0.000000  0.000000      1.000000
 
 Following cartesian coordinates:
            Coordinates               Weight
  0.000000  0.000000  0.000000      1.000000
 
    WAVPRE:  cpu time    0.0351: real time    0.0392
    FEWALD:  cpu time    0.0001: real time    0.0001
    ORTHCH:  cpu time    0.0082: real time    0.0082
     LOOP+:  cpu time    4.2802: real time    4.3187


--------------------------------------- Iteration      2(   1)  ---------------------------------------


    POTLOK:  cpu time    0.0663: real time    0.0678
    SETDIJ:  cpu time    0.0035: real time    0.0035
     EDDAV:  cpu time    0.1106: real time    0.1109
       DOS:  cpu time    0.0001: real time    0.0001
    CHARGE:  cpu time    0.0413: real time    0.0413
    MIXING:  cpu time    0.0014: real time    0.0014
    --------------------------------------------
      LOOP:  cpu time    0.2233: real time    0.2249

 eigenvalue-minimisations  :   140
 total energy-change (2. order) : 0.1647328E-01  (-0.2129867E+00)
 number of electron      12.0000063 magnetization       1.9999942
 augmentation part        1.1554701 magnetization       0.4965337

 Broyden mixing:
  rms(total) = 0.63044E-01    rms(broyden)= 0.62293E-01
  rms(prec ) = 0.64632E-01
  weight for this iteration     100.00

 Free energy of the ion-electron system (eV)
  ---------------------------------------------------
  alpha Z        PSCENC =         0.56134412
  Ewald energy   TEWEN  =       137.56876607
  -Hartree energ DENC   =      -870.99570513
  -exchange      EXHF   =         0.00000000
  -V(xc)+E(xc)   XCENC  =        55.54180749
  PAW double counting   =       565.60354188     -569.26800944
  entropy T*S    EENTRO =        -0.00000000
  eigenvalues    EBANDS =      -193.53141206
  atomic energy  EATOM  =       864.67971496
  Solvation  Ediel_sol  =         0.00000000
  ---------------------------------------------------
  free energy    TOTEN  =        -9.83995211 eV

  energy without entropy =       -9.83995211  energy(sigma->0) =       -9.83995211


--------------------------------------------------------------------------------------------------------




--------------------------------------- Iteration      2(   2)  ---------------------------------------


    POTLOK:  cpu time    0.0674: real time    0.0676
    SETDIJ:  cpu time    0.0036: real time    0.0036
    EDDIAG:  cpu time    0.0217: real time    0.0217
  RMM-DIIS:  cpu time    0.0820: real time    0.0820
    ORTHCH:  cpu time    0.0022: real time    0.0022
       DOS:  cpu time    0.0001: real time    0.0001
    CHARGE:  cpu time    0.0413: real time    0.0413
    MIXING:  cpu time    0.0015: real time    0.0015
    --------------------------------------------
      LOOP:  cpu time    0.2198: real time    0.2200

 eigenvalue-minimisations  :   112
 total energy-change (2. order) : 0.2989261E-02  (-0.1638226E-02)
 number of electron      12.0000063 magnetization       1.9999965
 augmentation part        1.1542746 magnetization       0.4951768

 Broyden mixing:
  rms(total) = 0.31804E-01    rms(broyden)= 0.31718E-01
  rms(prec ) = 0.32776E-01
  weight for this iteration     100.00

 eigenvalues of (default mixing * dielectric matrix)
  average eigenvalue GAMMA=   0.6860
  0.6860

 Free energy of the ion-electron system (eV)
  ---------------------------------------------------
  alpha Z        PSCENC =         0.56134412
  Ewald energy   TEWEN  =       137.56876607
  -Hartree energ DENC   =      -871.66346312
  -exchange      EXHF   =         0.00000000
  -V(xc)+E(xc)   XCENC  =        55.58723326
  PAW double counting   =       568.72776682     -572.40892123
  entropy T*S    EENTRO =        -0.00000000
  eigenvalues    EBANDS =      -192.88940373
  atomic energy  EATOM  =       864.67971496
  Solvation  Ediel_sol  =         0.00000000
  ---------------------------------------------------
  free energy    TOTEN  =        -9.83696285 eV

  energy without entropy =       -9.83696285  energy(sigma->0) =       -9.83696285


--------------------------------------------------------------------------------------------------------




--------------------------------------- Iteration      2(   3)  ---------------------------------------


    POTLOK:  cpu time    0.0674: real time    0.0676
    SETDIJ:  cpu time    0.0036: real time    0.0036
    EDDIAG:  cpu time    0.0218: real time    0.0218
  RMM-DIIS:  cpu time    0.0814: real time    0.0814
    ORTHCH:  cpu time    0.0022: real time    0.0022
       DOS:  cpu time    0.0001: real time    0.0001
    CHARGE:  cpu time    0.0413: real time    0.0413
    MIXING:  cpu time    0.0016: real time    0.0016
    --------------------------------------------
      LOOP:  cpu time    0.2194: real time    0.2196

 eigenvalue-minimisations  :   112
 total energy-change (2. order) :-0.3389594E-02  (-0.1530726E-03)
 number of electron      12.0000063 magnetization       2.0000002
 augmentation part        1.1533819 magnetization       0.4946286

 Broyden mixing:
  rms(total) = 0.12780E-01    rms(broyden)= 0.12771E-01
  rms(prec ) = 0.13617E-01
  weight for this iteration     100.00

 eigenvalues of (default mixing * dielectric matrix)
  average eigenvalue GAMMA=   1.0992
  1.5362  0.6622

 Free energy of the ion-electron system (eV)
  ---------------------------------------------------
  alpha Z        PSCENC =         0.56134412
  Ewald energy   TEWEN  =       137.56876607
  -Hartree energ DENC   =      -871.86693535
  -exchange      EXHF   =         0.00000000
  -V(xc)+E(xc)   XCENC  =        55.59594967
  PAW double counting   =       569.94448885     -573.63275288
  entropy T*S    EENTRO =        -0.00000000
  eigenvalues    EBANDS =      -192.69092788
  atomic energy  EATOM  =       864.67971496
  Solvation  Ediel_sol  =         0.00000000
  ---------------------------------------------------
  free energy    TOTEN  =        -9.84035244 eV

  energy without entropy =       -9.84035244  energy(sigma->0) =       -9.84035244


--------------------------------------------------------------------------------------------------------




--------------------------------------- Iteration      2(   4)  ---------------------------------------


    POTLOK:  cpu time    0.0672: real time    0.0674
    SETDIJ:  cpu time    0.0036: real time    0.0036
    EDDIAG:  cpu time    0.0216: real time    0.0216
  RMM-DIIS:  cpu time    0.0817: real time    0.0817
    ORTHCH:  cpu time    0.0022: real time    0.0022
       DOS:  cpu time    0.0001: real time    0.0001
    CHARGE:  cpu time    0.0412: real time    0.0412
    MIXING:  cpu time    0.0017: real time    0.0017
    --------------------------------------------
      LOOP:  cpu time    0.2193: real time    0.2195

 eigenvalue-minimisations  :   112
 total energy-change (2. order) :-0.6499882E-03  (-0.6410931E-04)
 number of electron      12.0000063 magnetization       2.0000013
 augmentation part        1.1525584 magnetization       0.4942606

 Broyden mixing:
  rms(total) = 0.43012E-02    rms(broyden)= 0.42962E-02
  rms(prec ) = 0.46512E-02
  weight for this iteration     100.00

 eigenvalues of (default mixing * dielectric matrix)
  average eigenvalue GAMMA=   1.1448
  1.9653  0.8186  0.6503

 Free energy of the ion-electron system (eV)
[...]


--------------------------------------------------------------------------------------------------------




--------------------------------------- Iteration     13(  10)  ---------------------------------------


    POTLOK:  cpu time    0.0664: real time    0.0664
    SETDIJ:  cpu time    0.0035: real time    0.0035
    EDDIAG:  cpu time    0.0215: real time    0.0215
  RMM-DIIS:  cpu time    0.0756: real time    0.0789
    ORTHCH:  cpu time    0.0024: real time    0.0024
       DOS:  cpu time    0.0001: real time    0.0001
    --------------------------------------------
      LOOP:  cpu time    0.1696: real time    0.1730

 eigenvalue-minimisations  :    91
 total energy-change (2. order) :-0.1233772E-05  (-0.6198887E-08)
 number of electron      12.0000056 magnetization       2.0000018
 augmentation part        1.1389497 magnetization       0.4946417

 Free energy of the ion-electron system (eV)
  ---------------------------------------------------
  alpha Z        PSCENC =         0.56134412
  Ewald energy   TEWEN  =       130.30721672
  -Hartree energ DENC   =      -865.65162178
  -exchange      EXHF   =         0.00000000
  -V(xc)+E(xc)   XCENC  =        55.44181174
  PAW double counting   =       565.20278521     -568.86538100
  entropy T*S    EENTRO =        -0.00000000
  eigenvalues    EBANDS =      -191.53217910
  atomic energy  EATOM  =       864.67971496
  Solvation  Ediel_sol  =         0.00000000
  ---------------------------------------------------
  free energy    TOTEN  =        -9.85630913 eV

  energy without entropy =       -9.85630913  energy(sigma->0) =       -9.85630913


--------------------------------------------------------------------------------------------------------




 average (electrostatic) potential at core
  the test charge radii are     0.7215
  (the norm of the test charge is              1.0000)
       1 -83.7518       2 -83.7518
 
 
 
 E-fermi :  -6.8216     XC(G=0):  -0.5669     alpha+bet : -0.1513


 spin component 1

 k-point     1 :       0.0000    0.0000    0.0000
  band No.  band energies     occupation 
      1     -32.4237      1.00000
      2     -20.5762      1.00000
      3     -13.3345      1.00000
      4     -13.1837      1.00000
      5     -13.1833      1.00000
      6      -6.8857      1.00000
      7      -6.8857      1.00000
      8      -0.3096      0.00000
      9       0.9104      0.00000
     10       1.0226      0.00000
     11       1.0629      0.00000
     12       1.1192      0.00000
     13       1.3537      0.00000
     14       1.5880      0.00000
     15       2.3547      0.00000
     16       2.4441      0.00000
     17       2.4570      0.00000
     18       2.4792      0.00000
     19       2.6995      0.00000
     20       2.7474      0.00000
     21       2.9316      0.00000
     22       2.9397      0.00000
     23       2.9496      0.00000
     24       3.1525      0.00000
     25       3.1533      0.00000
     26       3.1976      0.00000
     27       3.7080      0.00000
     28       4.3136      0.00000

 spin component 2

 k-point     1 :       0.0000    0.0000    0.0000
  band No.  band energies     occupation 
      1     -31.1978      1.00000
      2     -18.7798      1.00000
      3     -12.4082      1.00000
      4     -11.3370      1.00000
      5     -11.3367      1.00000
      6      -4.6062      0.00000
      7      -4.6062      0.00000
      8      -0.1988      0.00000
      9       1.0231      0.00000
     10       1.1374      0.00000
     11       1.2422      0.00000
     12       1.3538      0.00000
     13       1.4208      0.00000
     14       1.6320      0.00000
     15       2.5145      0.00000
     16       2.5394      0.00000
     17       2.5495      0.00000
     18       2.5876      0.00000
     19       2.7486      0.00000
     20       2.9047      0.00000
     21       2.9759      0.00000
     22       2.9902      0.00000
     23       3.1288      0.00000
     24       3.1991      0.00000
     25       3.2395      0.00000
     26       3.2419      0.00000
     27       4.0959      0.00000
     28       4.3521      0.00000


--------------------------------------------------------------------------------------------------------


 soft charge-density along one line, spin component           1
         0         1         2         3         4         5         6         7         8         9
 total charge-density along one line
 
 soft charge-density along one line, spin component           2
         0         1         2         3         4         5         6         7         8         9
 total charge-density along one line
 
 pseudopotential strength for first ion, spin component:           1
 14.550  -0.651   0.002   0.009  -0.128  -0.000  -0.000   0.006
 -0.651   0.143  -0.000  -0.001   0.016   0.000   0.000  -0.003
  0.002  -0.000 -11.405  -0.000   0.000   0.527  -0.000   0.000
  0.009  -0.001  -0.000 -11.405   0.000  -0.000   0.526   0.001
 -0.128   0.016   0.000   0.000 -11.406   0.000   0.001   0.510
 -0.000   0.000   0.527  -0.000   0.000   0.052   0.000  -0.000
 -0.000   0.000  -0.000   0.526   0.001   0.000   0.052  -0.000
  0.006  -0.003   0.000   0.001   0.510  -0.000  -0.000   0.057
 pseudopotential strength for first ion, spin component:           2
 14.019  -0.569   0.002   0.009  -0.127  -0.000  -0.000   0.007
 -0.569   0.131  -0.000  -0.001   0.016   0.000   0.000  -0.003
  0.002  -0.000 -10.793  -0.001   0.007   0.372   0.000  -0.002
  0.009  -0.001  -0.001 -10.795   0.028   0.000   0.372  -0.006
 -0.127   0.016   0.007   0.028 -11.192  -0.002  -0.006   0.457
 -0.000   0.000   0.372   0.000  -0.002   0.102  -0.000   0.000
 -0.000   0.000   0.000   0.372  -0.006  -0.000   0.101   0.002
  0.007  -0.003  -0.002  -0.006   0.457   0.000   0.002   0.077
 total augmentation occupancy for first ion, spin component:           1
  1.951   0.074   0.003   0.014  -0.194  -0.001  -0.003   0.038
  0.074   0.055  -0.003  -0.014   0.190  -0.001  -0.005   0.066
  0.003  -0.003   1.527  -0.000   0.003   0.039   0.000  -0.004
  0.014  -0.014  -0.000   1.526   0.014   0.000   0.041  -0.015
 -0.194   0.190   0.003   0.014   1.333  -0.004  -0.015   0.255
 -0.001  -0.001   0.039   0.000  -0.004   0.016   0.000  -0.001
 -0.003  -0.005   0.000   0.041  -0.015   0.000   0.016  -0.005
  0.038   0.066  -0.004  -0.015   0.255  -0.001  -0.005   0.081
 total augmentation occupancy for first ion, spin component:           2
  0.024  -0.026  -0.000  -0.000   0.005   0.000   0.000  -0.006
 -0.026  -0.003   0.000  -0.000  -0.001   0.000   0.000  -0.002
 -0.000   0.000   0.574  -0.001   0.010  -0.072   0.000  -0.001
 -0.000  -0.000  -0.001   0.571   0.041   0.000  -0.071  -0.005
  0.005  -0.001   0.010   0.041   0.002  -0.001  -0.005  -0.009
  0.000   0.000  -0.072   0.000  -0.001   0.003  -0.000   0.000
  0.000   0.000   0.000  -0.071  -0.005  -0.000   0.003   0.000
 -0.006  -0.002  -0.001  -0.005  -0.009   0.000   0.000  -0.003


------------------------ aborting loop because EDIFF is reached ----------------------------------------


 


 total charge     
 
# of ion       s       p       d       tot
------------------------------------------
    1        1.621   3.276   0.000   4.897
    2        1.621   3.276   0.000   4.897
--------------------------------------------------
tot          3.243   6.551   0.000   9.794
 


 magnetization (x)
 
# of ion       s       p       d       tot
------------------------------------------
    1        0.010   0.802   0.000   0.812
    2        0.010   0.802   0.000   0.812
--------------------------------------------------
tot          0.020   1.603   0.000   1.624
 
    CHARGE:  cpu time    0.0421: real time    0.0421
    FORLOC:  cpu time    0.0012: real time    0.0012
    FORNL :  cpu time    0.0177: real time    0.0177
    STRESS:  cpu time    0.0522: real time    0.0523
    FORHAR:  cpu time    0.0068: real time    0.0068
    MIXING:  cpu time    0.0026: real time    0.0026
    OFIELD:  cpu time    0.0000: real time    0.0000

  FORCE on cell =-STRESS in cart. coord.  units (eV):
  Direction    XX          YY          ZZ          XY          YZ          ZX
  --------------------------------------------------------------------------------------
  Alpha Z     0.56134     0.56134     0.56134
  Ewald     354.47292   -98.19118  -125.97454    -7.38349     0.53037   -29.42309
  Hartree   450.10985   221.88665   193.65347    -3.37294     0.24383   -13.45822
  E(xc)     -57.92203   -59.07252   -59.06714    -0.02066     0.00148    -0.08222
  Local    -943.42015  -306.40996  -250.19171     9.96883    -0.71798    39.74636
  n-local   -47.31438   -43.77863   -43.80098     0.06434    -0.00547     0.25568
  augment    10.43416    12.99383    12.98239     0.04544    -0.00304     0.18335
  Kinetic   232.64640   271.56657   271.37790     0.69858    -0.04994     2.78086
  Fock        0.00000     0.00000     0.00000     0.00000     0.00000     0.00000
  -------------------------------------------------------------------------------------
  Total      -0.43188    -0.44389    -0.45927     0.00010    -0.00075     0.00273
  in kB      -0.69894    -0.71837    -0.74326     0.00015    -0.00122     0.00441
  external pressure =       -0.72 kB  Pullay stress =        0.00 kB


 VOLUME and BASIS-vectors are now :
 -----------------------------------------------------------------------------
  energy-cutoff  :      450.00
  volume of cell :      990.00
      direct lattice vectors                 reciprocal lattice vectors
     9.000000000  0.000000000  0.000000000     0.111111111  0.000000000  0.000000000
     0.000000000 10.000000000  0.000000000     0.000000000  0.100000000  0.000000000
     0.000000000  0.000000000 11.000000000     0.000000000  0.000000000  0.090909091

  length of vectors
     9.000000000 10.000000000 11.000000000     0.111111111  0.100000000  0.090909091


 FORCES acting on ions
    electron-ion (+dipol)            ewald-force                    non-local-force                 convergence-correction
 -----------------------------------------------------------------------------------------------
   0.283E+03 -.512E+01 -.205E+02   -.335E+03 0.604E+01 0.241E+02   0.517E+02 -.926E+00 -.369E+01   0.120E-03 -.171E-04 0.260E-03
   -.283E+03 0.512E+01 0.205E+02   0.335E+03 -.604E+01 -.241E+02   -.517E+02 0.926E+00 0.369E+01   -.931E-04 -.160E-04 0.586E-03
 -----------------------------------------------------------------------------------------------
   -.763E-04 -.900E-04 -.252E-03   0.000E+00 0.000E+00 0.000E+00   0.000E+00 0.000E+00 0.000E+00   0.269E-04 -.331E-04 0.846E-03
 
 
 POSITION                                       TOTAL-FORCE (eV/Angst)
 -----------------------------------------------------------------------------------
      3.97215      5.05585      5.52749         0.088995      0.000268     -0.007884
      5.20344      5.03375      5.43953        -0.088995     -0.000268      0.007884
 -----------------------------------------------------------------------------------
    total drift:                               -0.000049     -0.000123      0.000594


--------------------------------------------------------------------------------------------------------



  FREE ENERGIE OF THE ION-ELECTRON SYSTEM (eV)
  ---------------------------------------------------
  free  energy   TOTEN  =        -9.85630913 eV

  energy  without entropy=       -9.85630913  energy(sigma->0) =       -9.85630913
 
 d Force =-0.5345024E-04[-0.315E-03, 0.208E-03]  d Energy =-0.4297073E-04-0.105E-04
 d Force = 0.7473503E+00[ 0.965E+00, 0.529E+00]  d Ewald  = 0.7479396E+00-0.589E-03


--------------------------------------------------------------------------------------------------------


    POTLOK:  cpu time    0.0711: real time    0.0716


--------------------------------------------------------------------------------------------------------


 Finite differences progress:
  Degree of freedom:   6/  6
  Displacement:        2/  2
  Total:              12/ 12
 
 SECOND DERIVATIVES (NOT SYMMETRIZED)
 ------------------------------------
               1X          1Y          1Z          2X          2Y          2Z 
  1X   -72.256797    1.259823    3.921737   72.256797   -1.259823   -3.921737
  1Y     1.232579   -0.077698   -0.116240   -1.232579    0.077698    0.116240
  1Z     3.961742   -0.144176   -0.279394   -3.961742    0.144176    0.279394
  2X    72.259067   -1.313903   -3.909531  -72.259067    1.313903    3.909531
  2Y    -1.277789    0.088086   -0.005459    1.277789   -0.088086    0.005459
  2Z    -3.920645    0.037082    0.327382    3.920645   -0.037082   -0.327382
 
 
 Eigenvectors and eigenvalues of the dynamical matrix
 ----------------------------------------------------
 
 
   1 f  =   47.060575 THz   295.690312 2PiTHz 1569.771756 cm-1   194.626963 meV
             X         Y         Z           dx          dy          dz
      3.972153  5.055848  5.527486    -0.705946    0.012336    0.038527  
      5.203437  5.033752  5.459534     0.705959   -0.012525   -0.038330  
 
   2 f  =    1.754405 THz    11.023249 2PiTHz   58.520635 cm-1     7.255637 meV
             X         Y         Z           dx          dy          dz
      3.972153  5.055848  5.527486     0.013795    0.192531    0.582089  
      5.203437  5.033752  5.459534    -0.058485    0.220445   -0.756239  
 
   3 f  =    1.489933 THz     9.361526 2PiTHz   49.698821 cm-1     6.161871 meV
             X         Y         Z           dx          dy          dz
      3.972153  5.055848  5.527486     0.133995    0.654034    0.279106  
      5.203437  5.033752  5.459534     0.105681   -0.656731    0.184175  
 
   4 f/i=    0.002016 THz     0.012666 2PiTHz    0.067243 cm-1     0.008337 meV
             X         Y         Z           dx          dy          dz
      3.972153  5.055848  5.527486    -0.624862    0.068905    0.323660  
      5.203437  5.033752  5.459534    -0.624922    0.068895    0.323682  
 
   5 f/i=    0.447913 THz     2.814321 2PiTHz   14.940771 cm-1     1.852420 meV
             X         Y         Z           dx          dy          dz
      3.972153  5.055848  5.527486    -0.210605   -0.431573   -0.173229  
      5.203437  5.033752  5.459534    -0.229732   -0.705321   -0.434888  
 
   6 f/i=    0.716271 THz     4.500466 2PiTHz   23.892244 cm-1     2.962262 meV
             X         Y         Z           dx          dy          dz
      3.972153  5.055848  5.527486     0.220654   -0.586529    0.668599  
      5.203437  5.033752  5.459534     0.209117   -0.133143    0.314348  
 
 Finite differences POTIM=  2.000000000000000E-002
  LATTYP: Found a simple orthorhombic cell.
 ALAT       =     9.0000000000
 B/A-ratio  =     1.1111111111
 C/A-ratio  =     1.2222222222
  
  Lattice vectors:
  
 A1 = (   9.0000000000,   0.0000000000,   0.0000000000)
 A2 = (   0.0000000000,  10.0000000000,   0.0000000000)
 A3 = (   0.0000000000,   0.0000000000,  11.0000000000)


Analysis of symmetry for initial positions (statically):
=====================================================================
 Subroutine PRICEL returns:
 Original cell was already a primitive cell.
 

 Routine SETGRP: Setting up the symmetry group for a 
 simple orthorhombic supercell.


 Subroutine GETGRP returns: Found  2 space group operations
 (whereof  1 operations were pure point group operations)
 out of a pool of  8 trial point group operations.


The static configuration has the point symmetry C_1 .
 The point group associated with its full space group is S_2 .


Analysis of symmetry for dynamics (positions and initial velocities):
=====================================================================
 Subroutine PRICEL returns:
 Original cell was already a primitive cell.
 

 Routine SETGRP: Setting up the symmetry group for a 
 simple orthorhombic supercell.


 Subroutine GETGRP returns: Found  2 space group operations
 (whereof  1 operations were pure point group operations)
 out of a pool of  8 trial point group operations.


The dynamic configuration has the point symmetry C_1 .
 The point group associated with its full space group is S_2 .


Analysis of constrained symmetry for selective dynamics:
=====================================================================
 Subroutine PRICEL returns:
 Original cell was already a primitive cell.
 

 Routine SETGRP: Setting up the symmetry group for a 
 simple orthorhombic supercell.


 Subroutine GETGRP returns: Found  2 space group operations
 (whereof  1 operations were pure point group operations)
 out of a pool of  8 trial point group operations.


The constrained configuration has the point symmetry C_1 .
 The point group associated with its full space group is S_2 .


Analysis of structural, dynamic, and magnetic symmetry:
=====================================================================
 Subroutine PRICEL returns:
 Original cell was already a primitive cell.
 

 Routine SETGRP: Setting up the symmetry group for a 
 simple orthorhombic supercell.


 Subroutine GETGRP returns: Found  2 space group operations
 (whereof  1 operations were pure point group operations)
 out of a pool of  8 trial point group operations.


The magnetic configuration has the point symmetry C_1 .
 The point group associated with its full space group is S_2 .


 Subroutine INISYM returns: Found  2 space group operations
 (whereof  1 operations are pure point group operations),
 and found     1 'primitive' translations

 
 KPOINTS: Gamma                                   

Automatic generation of k-mesh.
Space group operators:
 irot       det(A)        alpha          n_x          n_y          n_z        tau_x        tau_y        tau_z
    1     1.000000     0.000000     1.000000     0.000000     0.000000     0.000000     0.000000     0.000000
    2    -1.000000     0.000000     1.000000     0.000000     0.000000     0.019510     0.008960     0.998820
 
 Subroutine IBZKPT returns following result:
 ===========================================
 
 Found      1 irreducible k-points:
 
 Following reciprocal coordinates:
            Coordinates               Weight
  0.000000  0.000000  0.000000      1.000000
 
 Following cartesian coordinates:
            Coordinates               Weight
  0.000000  0.000000  0.000000      1.000000
 
     LOOP+:  cpu time    2.3677: real time    2.3927
    4ORBIT:  cpu time    0.0000: real time    0.0000
 


 total charge     
 
# of ion       s       p       d       tot
------------------------------------------
    1        1.621   3.276   0.000   4.897
    2        1.621   3.276   0.000   4.897
--------------------------------------------------
tot          3.243   6.551   0.000   9.794
 


 magnetization (x)
 
# of ion       s       p       d       tot
------------------------------------------
    1        0.010   0.802   0.000   0.812
    2        0.010   0.802   0.000   0.812
--------------------------------------------------
tot          0.020   1.603   0.000   1.624
 

 total amount of memory used by VASP MPI-rank0    49560. kBytes
=======================================================================

   base      :      30000. kBytes
   nonlr-proj:        207. kBytes
   fftplans  :       2347. kBytes
   grid      :      16305. kBytes
   one-center:         12. kBytes
   wavefun   :        689. kBytes
 
  
  
 General timing and accounting informations for this job:
 ========================================================
  
                  Total CPU time used (sec):       35.108
                            User time (sec):       33.973
                          System time (sec):        1.136
                         Elapsed time (sec):       35.639
  
                   Maximum memory used (kb):      120272.
                   Average memory used (kb):           0.
  
                          Minor page faults:       300838
                          Major page faults:            2
                 Voluntary context switches:         1125
