   2   2   1   0
  0.4950000E+03  0.9000000E-09  0.1000000E-08  0.1100000E-08  0.2000000E-16
  1.000000000000000E-004
  CAR 
 unknown system                          
      6.19083772    -34.26245877  301     -6.82163932      1.00000000
    -34.262  0.0000E+00  0.0000E+00  0.0000E+00  0.0000E+00
    -34.128  0.0000E+00  0.0000E+00  0.0000E+00  0.0000E+00
    -33.993  0.0000E+00  0.0000E+00  0.0000E+00  0.0000E+00
    -33.858  0.0000E+00  0.0000E+00  0.0000E+00  0.0000E+00
    -33.723  0.0000E+00  0.0000E+00  0.0000E+00  0.0000E+00
    -33.588  0.0000E+00  0.0000E+00  0.0000E+00  0.0000E+00
    -33.453  0.0000E+00  0.0000E+00  0.0000E+00  0.0000E+00
    -33.319  0.0000E+00  0.0000E+00  0.0000E+00  0.0000E+00
    -33.184  0.0000E+00  0.0000E+00  0.0000E+00  0.0000E+00
    -33.049  0.0000E+00  0.0000E+00  0.0000E+00  0.0000E+00
    -32.914  0.0000E+00  0.0000E+00  0.0000E+00  0.0000E+00
    -32.779  0.0000E+00  0.0000E+00  0.0000E+00  0.0000E+00
    -32.644  0.0000E+00  0.0000E+00  0.0000E+00  0.0000E+00
    -32.509  0.0000E+00  0.0000E+00  0.0000E+00  0.0000E+00
    -32.375  0.1216E+00  0.0000E+00  0.1639E-01  0.0000E+00
    -32.240  0.0000E+00  0.0000E+00  0.1639E-01  0.0000E+00
    -32.105  0.0000E+00  0.0000E+00  0.1639E-01  0.0000E+00
    -31.970  0.0000E+00  0.0000E+00  0.1639E-01  0.0000E+00
    -31.835  0.0000E+00  0.0000E+00  0.1639E-01  0.0000E+00
    -31.700  0.0000E+00  0.0000E+00  0.1639E-01  0.0000E+00
    -31.566  0.0000E+00  0.0000E+00  0.1639E-01  0.0000E+00
    -31.431  0.0000E+00  0.0000E+00  0.1639E-01  0.0000E+00
    -31.296  0.0000E+00  0.0000E+00  0.1639E-01  0.0000E+00
    -31.161  0.0000E+00  0.1216E+00  0.1639E-01  0.1639E-01
    -31.026  0.0000E+00  0.0000E+00  0.1639E-01  0.1639E-01
    -30.891  0.0000E+00  0.0000E+00  0.1639E-01  0.1639E-01
    -30.757  0.0000E+00  0.0000E+00  0.1639E-01  0.1639E-01
    -30.622  0.0000E+00  0.0000E+00  0.1639E-01  0.1639E-01
    -30.487  0.0000E+00  0.0000E+00  0.1639E-01  0.1639E-01
    -30.352  0.0000E+00  0.0000E+00  0.1639E-01  0.1639E-01
    -30.217  0.0000E+00  0.0000E+00  0.1639E-01  0.1639E-01
    -30.082  0.0000E+00  0.0000E+00  0.1639E-01  0.1639E-01
    -29.947  0.0000E+00  0.0000E+00  0.1639E-01  0.1639E-01
    -29.813  0.0000E+00  0.0000E+00  0.1639E-01  0.1639E-01
    -29.678  0.0000E+00  0.0000E+00  0.1639E-01  0.1639E-01
    -29.543  0.0000E+00  0.0000E+00  0.1639E-01  0.1639E-01
    -29.408  0.0000E+00  0.0000E+00  0.1639E-01  0.1639E-01
    -29.273  0.0000E+00  0.0000E+00  0.1639E-01  0.1639E-01
    -29.138  0.0000E+00  0.0000E+00  0.1639E-01  0.1639E-01
    -29.004  0.0000E+00  0.0000E+00  0.1639E-01  0.1639E-01
    -28.869  0.0000E+00  0.0000E+00  0.1639E-01  0.1639E-01
    -28.734  0.0000E+00  0.0000E+00  0.1639E-01  0.1639E-01
    -28.599  0.0000E+00  0.0000E+00  0.1639E-01  0.1639E-01
    -28.464  0.0000E+00  0.0000E+00  0.1639E-01  0.1639E-01
    -28.329  0.0000E+00  0.0000E+00  0.1639E-01  0.1639E-01
    -28.194  0.0000E+00  0.0000E+00  0.1639E-01  0.1639E-01
    -28.060  0.0000E+00  0.0000E+00  0.1639E-01  0.1639E-01
    -27.925  0.0000E+00  0.0000E+00  0.1639E-01  0.1639E-01
    -27.790  0.0000E+00  0.0000E+00  0.1639E-01  0.1639E-01
    -27.655  0.0000E+00  0.0000E+00  0.1639E-01  0.1639E-01
    -27.520  0.0000E+00  0.0000E+00  0.1639E-01  0.1639E-01
    -27.385  0.0000E+00  0.0000E+00  0.1639E-01  0.1639E-01
    -27.251  0.0000E+00  0.0000E+00  0.1639E-01  0.1639E-01
    -27.116  0.0000E+00  0.0000E+00  0.1639E-01  0.1639E-01
    -26.981  0.0000E+00  0.0000E+00  0.1639E-01  0.1639E-01
    -26.846  0.0000E+00  0.0000E+00  0.1639E-01  0.1639E-01
    -26.711  0.0000E+00  0.0000E+00  0.1639E-01  0.1639E-01
    -26.576  0.0000E+00  0.0000E+00  0.1639E-01  0.1639E-01
    -26.441  0.0000E+00  0.0000E+00  0.1639E-01  0.1639E-01
    -26.307  0.0000E+00  0.0000E+00  0.1639E-01  0.1639E-01
    -26.172  0.0000E+00  0.0000E+00  0.1639E-01  0.1639E-01
    -26.037  0.0000E+00  0.0000E+00  0.1639E-01  0.1639E-01
    -25.902  0.0000E+00  0.0000E+00  0.1639E-01  0.1639E-01
    -25.767  0.0000E+00  0.0000E+00  0.1639E-01  0.1639E-01
    -25.632  0.0000E+00  0.0000E+00  0.1639E-01  0.1639E-01
    -25.498  0.0000E+00  0.0000E+00  0.1639E-01  0.1639E-01
    -25.363  0.0000E+00  0.0000E+00  0.1639E-01  0.1639E-01
    -25.228  0.0000E+00  0.0000E+00  0.1639E-01  0.1639E-01
    -25.093  0.0000E+00  0.0000E+00  0.1639E-01  0.1639E-01
    -24.958  0.0000E+00  0.0000E+00  0.1639E-01  0.1639E-01
    -24.823  0.0000E+00  0.0000E+00  0.1639E-01  0.1639E-01
    -24.689  0.0000E+00  0.0000E+00  0.1639E-01  0.1639E-01
    -24.554  0.0000E+00  0.0000E+00  0.1639E-01  0.1639E-01
    -24.419  0.0000E+00  0.0000E+00  0.1639E-01  0.1639E-01
    -24.284  0.0000E+00  0.0000E+00  0.1639E-01  0.1639E-01
    -24.149  0.0000E+00  0.0000E+00  0.1639E-01  0.1639E-01
    -24.014  0.0000E+00  0.0000E+00  0.1639E-01  0.1639E-01
    -23.879  0.0000E+00  0.0000E+00  0.1639E-01  0.1639E-01
    -23.745  0.0000E+00  0.0000E+00  0.1639E-01  0.1639E-01
    -23.610  0.0000E+00  0.0000E+00  0.1639E-01  0.1639E-01
    -23.475  0.0000E+00  0.0000E+00  0.1639E-01  0.1639E-01
    -23.340  0.0000E+00  0.0000E+00  0.1639E-01  0.1639E-01
    -23.205  0.0000E+00  0.0000E+00  0.1639E-01  0.1639E-01
    -23.070  0.0000E+00  0.0000E+00  0.1639E-01  0.1639E-01
    -22.936  0.0000E+00  0.0000E+00  0.1639E-01  0.1639E-01
    -22.801  0.0000E+00  0.0000E+00  0.1639E-01  0.1639E-01
    -22.666  0.0000E+00  0.0000E+00  0.1639E-01  0.1639E-01
    -22.531  0.0000E+00  0.0000E+00  0.1639E-01  0.1639E-01
    -22.396  0.0000E+00  0.0000E+00  0.1639E-01  0.1639E-01
    -22.261  0.0000E+00  0.0000E+00  0.1639E-01  0.1639E-01
    -22.126  0.0000E+00  0.0000E+00  0.1639E-01  0.1639E-01
    -21.992  0.0000E+00  0.0000E+00  0.1639E-01  0.1639E-01
    -21.857  0.0000E+00  0.0000E+00  0.1639E-01  0.1639E-01
    -21.722  0.0000E+00  0.0000E+00  0.1639E-01  0.1639E-01
    -21.587  0.0000E+00  0.0000E+00  0.1639E-01  0.1639E-01
    -21.452  0.0000E+00  0.0000E+00  0.1639E-01  0.1639E-01
    -21.317  0.0000E+00  0.0000E+00  0.1639E-01  0.1639E-01
    -21.183  0.0000E+00  0.0000E+00  0.1639E-01  0.1639E-01
    -21.048  0.0000E+00  0.0000E+00  0.1639E-01  0.1639E-01
    -20.913  0.0000E+00  0.0000E+00  0.1639E-01  0.1639E-01
    -20.778  0.0000E+00  0.0000E+00  0.1639E-01  0.1639E-01
    -20.643  0.0000E+00  0.0000E+00  0.1639E-01  0.1639E-01
    -20.508  0.1216E+00  0.0000E+00  0.3279E-01  0.1639E-01
    -20.373  0.0000E+00  0.0000E+00  0.3279E-01  0.1639E-01
    -20.239  0.0000E+00  0.0000E+00  0.3279E-01  0.1639E-01
    -20.104  0.0000E+00  0.0000E+00  0.3279E-01  0.1639E-01
    -19.969  0.0000E+00  0.0000E+00  0.3279E-01  0.1639E-01
    -19.834  0.0000E+00  0.0000E+00  0.3279E-01  0.1639E-01
    -19.699  0.0000E+00  0.0000E+00  0.3279E-01  0.1639E-01
    -19.564  0.0000E+00  0.0000E+00  0.3279E-01  0.1639E-01
    -19.430  0.0000E+00  0.0000E+00  0.3279E-01  0.1639E-01
    -19.295  0.0000E+00  0.0000E+00  0.3279E-01  0.1639E-01
    -19.160  0.0000E+00  0.0000E+00  0.3279E-01  0.1639E-01
    -19.025  0.0000E+00  0.0000E+00  0.3279E-01  0.1639E-01
    -18.890  0.0000E+00  0.0000E+00  0.3279E-01  0.1639E-01
    -18.755  0.0000E+00  0.1215E+00  0.3279E-01  0.3278E-01
    -18.621  0.0000E+00  0.0000E+00  0.3279E-01  0.3279E-01
    -18.486  0.0000E+00  0.0000E+00  0.3279E-01  0.3279E-01
    -18.351  0.0000E+00  0.0000E+00  0.3279E-01  0.3279E-01
    -18.216  0.0000E+00  0.0000E+00  0.3279E-01  0.3279E-01
    -18.081  0.0000E+00  0.0000E+00  0.3279E-01  0.3279E-01
    -17.946  0.0000E+00  0.0000E+00  0.3279E-01  0.3279E-01
    -17.811  0.0000E+00  0.0000E+00  0.3279E-01  0.3279E-01
    -17.677  0.0000E+00  0.0000E+00  0.3279E-01  0.3279E-01
    -17.542  0.0000E+00  0.0000E+00  0.3279E-01  0.3279E-01
    -17.407  0.0000E+00  0.0000E+00  0.3279E-01  0.3279E-01
    -17.272  0.0000E+00  0.0000E+00  0.3279E-01  0.3279E-01
    -17.137  0.0000E+00  0.0000E+00  0.3279E-01  0.3279E-01
    -17.002  0.0000E+00  0.0000E+00  0.3279E-01  0.3279E-01
    -16.868  0.0000E+00  0.0000E+00  0.3279E-01  0.3279E-01
    -16.733  0.0000E+00  0.0000E+00  0.3279E-01  0.3279E-01
    -16.598  0.0000E+00  0.0000E+00  0.3279E-01  0.3279E-01
    -16.463  0.0000E+00  0.0000E+00  0.3279E-01  0.3279E-01
    -16.328  0.0000E+00  0.0000E+00  0.3279E-01  0.3279E-01
    -16.193  0.0000E+00  0.0000E+00  0.3279E-01  0.3279E-01
    -16.058  0.0000E+00  0.0000E+00  0.3279E-01  0.3279E-01
    -15.924  0.0000E+00  0.0000E+00  0.3279E-01  0.3279E-01
    -15.789  0.0000E+00  0.0000E+00  0.3279E-01  0.3279E-01
    -15.654  0.0000E+00  0.0000E+00  0.3279E-01  0.3279E-01
    -15.519  0.0000E+00  0.0000E+00  0.3279E-01  0.3279E-01
    -15.384  0.0000E+00  0.0000E+00  0.3279E-01  0.3279E-01
    -15.249  0.0000E+00  0.0000E+00  0.3279E-01  0.3279E-01
    -15.115  0.0000E+00  0.0000E+00  0.3279E-01  0.3279E-01
    -14.980  0.0000E+00  0.0000E+00  0.3279E-01  0.3279E-01
    -14.845  0.0000E+00  0.0000E+00  0.3279E-01  0.3279E-01
    -14.710  0.0000E+00  0.0000E+00  0.3279E-01  0.3279E-01
    -14.575  0.0000E+00  0.0000E+00  0.3279E-01  0.3279E-01
    -14.440  0.0000E+00  0.0000E+00  0.3279E-01  0.3279E-01
    -14.305  0.0000E+00  0.0000E+00  0.3279E-01  0.3279E-01
    -14.171  0.0000E+00  0.0000E+00  0.3279E-01  0.3279E-01
    -14.036  0.0000E+00  0.0000E+00  0.3279E-01  0.3279E-01
    -13.901  0.0000E+00  0.0000E+00  0.3279E-01  0.3279E-01
    -13.766  0.0000E+00  0.0000E+00  0.3279E-01  0.3279E-01
    -13.631  0.0000E+00  0.0000E+00  0.3279E-01  0.3279E-01
    -13.496  0.0000E+00  0.0000E+00  0.3279E-01  0.3279E-01
    -13.362  0.7811E-05  0.0000E+00  0.3279E-01  0.3279E-01
    -13.227  0.1184E-09  0.0000E+00  0.4918E-01  0.3279E-01
    -13.092  0.0000E+00  0.0000E+00  0.8197E-01  0.3279E-01
    -12.957  0.0000E+00  0.0000E+00  0.8197E-01  0.3279E-01
    -12.822  0.0000E+00  0.0000E+00  0.8197E-01  0.3279E-01
    -12.687  0.0000E+00  0.0000E+00  0.8197E-01  0.3279E-01
    -12.553  0.0000E+00  0.0000E+00  0.8197E-01  0.3279E-01
    -12.418  0.0000E+00  0.1092E-01  0.8197E-01  0.3426E-01
    -12.283  0.0000E+00  0.0000E+00  0.8197E-01  0.4918E-01
    -12.148  0.0000E+00  0.0000E+00  0.8197E-01  0.4918E-01
    -12.013  0.0000E+00  0.0000E+00  0.8197E-01  0.4918E-01
    -11.878  0.0000E+00  0.0000E+00  0.8197E-01  0.4918E-01
    -11.743  0.0000E+00  0.0000E+00  0.8197E-01  0.4918E-01
    -11.609  0.0000E+00  0.0000E+00  0.8197E-01  0.4918E-01
    -11.474  0.0000E+00  0.0000E+00  0.8197E-01  0.4918E-01
    -11.339  0.0000E+00  0.9313E-01  0.8197E-01  0.6174E-01
    -11.204  0.0000E+00  0.0000E+00  0.8197E-01  0.8197E-01
    -11.069  0.0000E+00  0.0000E+00  0.8197E-01  0.8197E-01
    -10.934  0.0000E+00  0.0000E+00  0.8197E-01  0.8197E-01
    -10.800  0.0000E+00  0.0000E+00  0.8197E-01  0.8197E-01
    -10.665  0.0000E+00  0.0000E+00  0.8197E-01  0.8197E-01
    -10.530  0.0000E+00  0.0000E+00  0.8197E-01  0.8197E-01
    -10.395  0.0000E+00  0.0000E+00  0.8197E-01  0.8197E-01
    -10.260  0.0000E+00  0.0000E+00  0.8197E-01  0.8197E-01
    -10.125  0.0000E+00  0.0000E+00  0.8197E-01  0.8197E-01
     -9.990  0.0000E+00  0.0000E+00  0.8197E-01  0.8197E-01
     -9.856  0.0000E+00  0.0000E+00  0.8197E-01  0.8197E-01
     -9.721  0.0000E+00  0.0000E+00  0.8197E-01  0.8197E-01
     -9.586  0.0000E+00  0.0000E+00  0.8197E-01  0.8197E-01
     -9.451  0.0000E+00  0.0000E+00  0.8197E-01  0.8197E-01
     -9.316  0.0000E+00  0.0000E+00  0.8197E-01  0.8197E-01
     -9.181  0.0000E+00  0.0000E+00  0.8197E-01  0.8197E-01
     -9.047  0.0000E+00  0.0000E+00  0.8197E-01  0.8197E-01
     -8.912  0.0000E+00  0.0000E+00  0.8197E-01  0.8197E-01
     -8.777  0.0000E+00  0.0000E+00  0.8197E-01  0.8197E-01
     -8.642  0.0000E+00  0.0000E+00  0.8197E-01  0.8197E-01
     -8.507  0.0000E+00  0.0000E+00  0.8197E-01  0.8197E-01
     -8.372  0.0000E+00  0.0000E+00  0.8197E-01  0.8197E-01
     -8.238  0.0000E+00  0.0000E+00  0.8197E-01  0.8197E-01
     -8.103  0.0000E+00  0.0000E+00  0.8197E-01  0.8197E-01
     -7.968  0.0000E+00  0.0000E+00  0.8197E-01  0.8197E-01
     -7.833  0.0000E+00  0.0000E+00  0.8197E-01  0.8197E-01
     -7.698  0.0000E+00  0.0000E+00  0.8197E-01  0.8197E-01
     -7.563  0.0000E+00  0.0000E+00  0.8197E-01  0.8197E-01
     -7.428  0.0000E+00  0.0000E+00  0.8197E-01  0.8197E-01
     -7.294  0.0000E+00  0.0000E+00  0.8197E-01  0.8197E-01
     -7.159  0.0000E+00  0.0000E+00  0.8197E-01  0.8197E-01
     -7.024  0.0000E+00  0.0000E+00  0.8197E-01  0.8197E-01
     -6.889  0.7730E-01  0.0000E+00  0.9239E-01  0.8197E-01
     -6.754  0.0000E+00  0.0000E+00  0.1148E+00  0.8197E-01
     -6.619  0.0000E+00  0.0000E+00  0.1148E+00  0.8197E-01
     -6.485  0.0000E+00  0.0000E+00  0.1148E+00  0.8197E-01
     -6.350  0.0000E+00  0.0000E+00  0.1148E+00  0.8197E-01
     -6.215  0.0000E+00  0.0000E+00  0.1148E+00  0.8197E-01
     -6.080  0.0000E+00  0.0000E+00  0.1148E+00  0.8197E-01
     -5.945  0.0000E+00  0.0000E+00  0.1148E+00  0.8197E-01
     -5.810  0.0000E+00  0.0000E+00  0.1148E+00  0.8197E-01
     -5.675  0.0000E+00  0.0000E+00  0.1148E+00  0.8197E-01
     -5.541  0.0000E+00  0.0000E+00  0.1148E+00  0.8197E-01
     -5.406  0.0000E+00  0.0000E+00  0.1148E+00  0.8197E-01
     -5.271  0.0000E+00  0.0000E+00  0.1148E+00  0.8197E-01
     -5.136  0.0000E+00  0.0000E+00  0.1148E+00  0.8197E-01
     -5.001  0.0000E+00  0.0000E+00  0.1148E+00  0.8197E-01
     -4.866  0.0000E+00  0.0000E+00  0.1148E+00  0.8197E-01
     -4.732  0.0000E+00  0.0000E+00  0.1148E+00  0.8197E-01
     -4.597  0.0000E+00  0.2212E+00  0.1148E+00  0.1118E+00
     -4.462  0.0000E+00  0.0000E+00  0.1148E+00  0.1148E+00
     -4.327  0.0000E+00  0.0000E+00  0.1148E+00  0.1148E+00
     -4.192  0.0000E+00  0.0000E+00  0.1148E+00  0.1148E+00
     -4.057  0.0000E+00  0.0000E+00  0.1148E+00  0.1148E+00
     -3.922  0.0000E+00  0.0000E+00  0.1148E+00  0.1148E+00
     -3.788  0.0000E+00  0.0000E+00  0.1148E+00  0.1148E+00
     -3.653  0.0000E+00  0.0000E+00  0.1148E+00  0.1148E+00
     -3.518  0.0000E+00  0.0000E+00  0.1148E+00  0.1148E+00
     -3.383  0.0000E+00  0.0000E+00  0.1148E+00  0.1148E+00
     -3.248  0.0000E+00  0.0000E+00  0.1148E+00  0.1148E+00
     -3.113  0.0000E+00  0.0000E+00  0.1148E+00  0.1148E+00
     -2.979  0.0000E+00  0.0000E+00  0.1148E+00  0.1148E+00
     -2.844  0.0000E+00  0.0000E+00  0.1148E+00  0.1148E+00
     -2.709  0.0000E+00  0.0000E+00  0.1148E+00  0.1148E+00
     -2.574  0.0000E+00  0.0000E+00  0.1148E+00  0.1148E+00
     -2.439  0.0000E+00  0.0000E+00  0.1148E+00  0.1148E+00
     -2.304  0.0000E+00  0.0000E+00  0.1148E+00  0.1148E+00
     -2.170  0.0000E+00  0.0000E+00  0.1148E+00  0.1148E+00
     -2.035  0.0000E+00  0.0000E+00  0.1148E+00  0.1148E+00
     -1.900  0.0000E+00  0.0000E+00  0.1148E+00  0.1148E+00
     -1.765  0.0000E+00  0.0000E+00  0.1148E+00  0.1148E+00
     -1.630  0.0000E+00  0.0000E+00  0.1148E+00  0.1148E+00
     -1.495  0.0000E+00  0.0000E+00  0.1148E+00  0.1148E+00
     -1.360  0.0000E+00  0.0000E+00  0.1148E+00  0.1148E+00
     -1.226  0.0000E+00  0.0000E+00  0.1148E+00  0.1148E+00
     -1.091  0.0000E+00  0.0000E+00  0.1148E+00  0.1148E+00
     -0.956  0.0000E+00  0.0000E+00  0.1148E+00  0.1148E+00
     -0.821  0.0000E+00  0.0000E+00  0.1148E+00  0.1148E+00
     -0.686  0.0000E+00  0.0000E+00  0.1148E+00  0.1148E+00
     -0.551  0.0000E+00  0.0000E+00  0.1148E+00  0.1148E+00
     -0.417  0.0000E+00  0.0000E+00  0.1148E+00  0.1148E+00
     -0.282  0.1216E+00  0.0000E+00  0.1311E+00  0.1148E+00
     -0.147  0.0000E+00  0.1216E+00  0.1311E+00  0.1311E+00
     -0.012  0.0000E+00  0.0000E+00  0.1311E+00  0.1311E+00
      0.123  0.0000E+00  0.0000E+00  0.1311E+00  0.1311E+00
      0.258  0.0000E+00  0.0000E+00  0.1311E+00  0.1311E+00
      0.393  0.0000E+00  0.0000E+00  0.1311E+00  0.1311E+00
      0.527  0.0000E+00  0.0000E+00  0.1311E+00  0.1311E+00
      0.662  0.0000E+00  0.0000E+00  0.1311E+00  0.1311E+00
      0.797  0.0000E+00  0.0000E+00  0.1311E+00  0.1311E+00
      0.932  0.1214E+00  0.0000E+00  0.1475E+00  0.1311E+00
      1.067  0.2073E+00  0.1216E+00  0.1755E+00  0.1475E+00
      1.202  0.0000E+00  0.1216E+00  0.1967E+00  0.1639E+00
      1.336  0.8853E-03  0.8405E-03  0.1968E+00  0.1804E+00
      1.471  0.0000E+00  0.1216E+00  0.2131E+00  0.2131E+00
      1.606  0.1209E+00  0.1505E-04  0.2294E+00  0.2131E+00
      1.741  0.0000E+00  0.0000E+00  0.2295E+00  0.2295E+00
      1.876  0.0000E+00  0.0000E+00  0.2295E+00  0.2295E+00
      2.011  0.0000E+00  0.0000E+00  0.2295E+00  0.2295E+00
      2.146  0.0000E+00  0.0000E+00  0.2295E+00  0.2295E+00
      2.280  0.0000E+00  0.0000E+00  0.2295E+00  0.2295E+00
      2.415  0.1216E+00  0.0000E+00  0.2459E+00  0.2295E+00
      2.550  0.1216E+00  0.3000E+00  0.2951E+00  0.2700E+00
      2.685  0.2335E-02  0.0000E+00  0.2954E+00  0.2951E+00
      2.820  0.1216E+00  0.1216E+00  0.3279E+00  0.3115E+00
      2.955  0.3330E+00  0.1217E+00  0.3728E+00  0.3279E+00
      3.089  0.0000E+00  0.1564E-08  0.3770E+00  0.3607E+00
      3.224  0.3647E+00  0.1242E+00  0.4262E+00  0.3938E+00
      3.359  0.0000E+00  0.0000E+00  0.4262E+00  0.4262E+00
      3.494  0.0000E+00  0.0000E+00  0.4262E+00  0.4262E+00
      3.629  0.0000E+00  0.0000E+00  0.4262E+00  0.4262E+00
      3.764  0.1216E+00  0.0000E+00  0.4426E+00  0.4262E+00
      3.898  0.0000E+00  0.0000E+00  0.4426E+00  0.4262E+00
      4.033  0.0000E+00  0.0000E+00  0.4426E+00  0.4262E+00
      4.168  0.0000E+00  0.1216E+00  0.4426E+00  0.4426E+00
      4.303  0.8109E-02  0.2478E-12  0.4437E+00  0.4426E+00
      4.438  0.0000E+00  0.0000E+00  0.4590E+00  0.4590E+00
      4.573  0.0000E+00  0.0000E+00  0.4590E+00  0.4590E+00
      4.708  0.0000E+00  0.0000E+00  0.4590E+00  0.4590E+00
      4.842  0.0000E+00  0.0000E+00  0.4590E+00  0.4590E+00
      4.977  0.0000E+00  0.0000E+00  0.4590E+00  0.4590E+00
      5.112  0.0000E+00  0.0000E+00  0.4590E+00  0.4590E+00
      5.247  0.0000E+00  0.0000E+00  0.4590E+00  0.4590E+00
      5.382  0.0000E+00  0.0000E+00  0.4590E+00  0.4590E+00
      5.517  0.0000E+00  0.0000E+00  0.4590E+00  0.4590E+00
      5.651  0.0000E+00  0.0000E+00  0.4590E+00  0.4590E+00
      5.786  0.0000E+00  0.0000E+00  0.4590E+00  0.4590E+00
      5.921  0.0000E+00  0.0000E+00  0.4590E+00  0.4590E+00
      6.056  0.0000E+00  0.0000E+00  0.4590E+00  0.4590E+00
      6.191  0.0000E+00  0.0000E+00  0.4590E+00  0.4590E+00
      6.19083772    -34.26245877  301     -6.82163932      1.00000000
    -34.262  0.0000E+00  0.0000E+00  0.0000E+00  0.0000E+00  0.0000E+00  0.0000E+00  0.0000E+00  0.0000E+00  0.0000E+00  0.0000E+00  0.0000E+00  0.0000E+00  0.0000E+00  0.0000E+00  0.0000E+00  0.0000E+00  0.0000E+00  0.0000E+00
    -34.128  0.0000E+00  0.0000E+00  0.0000E+00  0.0000E+00  0.0000E+00  0.0000E+00  0.0000E+00  0.0000E+00  0.0000E+00  0.0000E+00  0.0000E+00  0.0000E+00  0.0000E+00  0.0000E+00  0.0000E+00  0.0000E+00  0.0000E+00  0.0000E+00
    -33.993  0.0000E+00  0.0000E+00  0.0000E+00  0.0000E+00  0.0000E+00  0.0000E+00  0.0000E+00  0.0000E+00  0.0000E+00  0.0000E+00  0.0000E+00  0.0000E+00  0.0000E+00  0.0000E+00  0.0000E+00  0.0000E+00  0.0000E+00  0.0000E+00
    -33.858  0.0000E+00  0.0000E+00  0.0000E+00  0.0000E+00  0.0000E+00  0.0000E+00  0.0000E+00  0.0000E+00  0.0000E+00  0.0000E+00  0.0000E+00  0.0000E+00  0.0000E+00  0.0000E+00  0.0000E+00  0.0000E+00  0.0000E+00  0.0000E+00
    -33.723  0.0000E+00  0.0000E+00  0.0000E+00  0.0000E+00  0.0000E+00  0.0000E+00  0.0000E+00  0.0000E+00  0.0000E+00  0.0000E+00  0.0000E+00  0.0000E+00  0.0000E+00  0.0000E+00  0.0000E+00  0.0000E+00  0.0000E+00  0.0000E+00
    -33.588  0.0000E+00  0.0000E+00  0.0000E+00  0.0000E+00  0.0000E+00  0.0000E+00  0.0000E+00  0.0000E+00  0.0000E+00  0.0000E+00  0.0000E+00  0.0000E+00  0.0000E+00  0.0000E+00  0.0000E+00  0.0000E+00  0.0000E+00  0.0000E+00
    -33.453  0.0000E+00  0.0000E+00  0.0000E+00  0.0000E+00  0.0000E+00  0.0000E+00  0.0000E+00  0.0000E+00  0.0000E+00  0.0000E+00  0.0000E+00  0.0000E+00  0.0000E+00  0.0000E+00  0.0000E+00  0.0000E+00  0.0000E+00  0.0000E+00
    -33.319  0.0000E+00  0.0000E+00  0.0000E+00  0.0000E+00  0.0000E+00  0.0000E+00  0.0000E+00  0.0000E+00  0.0000E+00  0.0000E+00  0.0000E+00  0.0000E+00  0.0000E+00  0.0000E+00  0.0000E+00  0.0000E+00  0.0000E+00  0.0000E+00
    -33.184  0.0000E+00  0.0000E+00  0.0000E+00  0.0000E+00  0.0000E+00  0.0000E+00  0.0000E+00  0.0000E+00  0.0000E+00  0.0000E+00  0.0000E+00  0.0000E+00  0.0000E+00  0.0000E+00  0.0000E+00  0.0000E+00  0.0000E+00  0.0000E+00
    -33.049  0.0000E+00  0.0000E+00  0.0000E+00  0.0000E+00  0.0000E+00  0.0000E+00  0.0000E+00  0.0000E+00  0.0000E+00  0.0000E+00  0.0000E+00  0.0000E+00  0.0000E+00  0.0000E+00  0.0000E+00  0.0000E+00  0.0000E+00  0.0000E+00
    -32.914  0.0000E+00  0.0000E+00  0.0000E+00  0.0000E+00  0.0000E+00  0.0000E+00  0.0000E+00  0.0000E+00  0.0000E+00  0.0000E+00  0.0000E+00  0.0000E+00  0.0000E+00  0.0000E+00  0.0000E+00  0.0000E+00  0.0000E+00  0.0000E+00
    -32.779  0.0000E+00  0.0000E+00  0.0000E+00  0.0000E+00  0.0000E+00  0.0000E+00  0.0000E+00  0.0000E+00  0.0000E+00  0.0000E+00  0.0000E+00  0.0000E+00  0.0000E+00  0.0000E+00  0.0000E+00  0.0000E+00  0.0000E+00  0.0000E+00
    -32.644  0.0000E+00  0.0000E+00  0.0000E+00  0.0000E+00  0.0000E+00  0.0000E+00  0.0000E+00  0.0000E+00  0.0000E+00  0.0000E+00  0.0000E+00  0.0000E+00  0.0000E+00  0.0000E+00  0.0000E+00  0.0000E+00  0.0000E+00  0.0000E+00
    -32.509  0.0000E+00  0.0000E+00  0.0000E+00  0.0000E+00  0.0000E+00  0.0000E+00  0.0000E+00  0.0000E+00  0.0000E+00  0.0000E+00  0.0000E+00  0.0000E+00  0.0000E+00  0.0000E+00  0.0000E+00  0.0000E+00  0.0000E+00  0.0000E+00
    -32.375  0.2975E+01  0.0000E+00  0.2251E-03  0.0000E+00  0.3575E-02  0.0000E+00  0.6999E+00  0.0000E+00  0.0000E+00  0.0000E+00  0.0000E+00  0.0000E+00  0.0000E+00  0.0000E+00  0.0000E+00  0.0000E+00  0.0000E+00  0.0000E+00
    -32.240  0.0000E+00  0.0000E+00  0.0000E+00  0.0000E+00  0.0000E+00  0.0000E+00  0.0000E+00  0.0000E+00  0.0000E+00  0.0000E+00  0.0000E+00  0.0000E+00  0.0000E+00  0.0000E+00  0.0000E+00  0.0000E+00  0.0000E+00  0.0000E+00
    -32.105  0.0000E+00  0.0000E+00  0.0000E+00  0.0000E+00  0.0000E+00  0.0000E+00  0.0000E+00  0.0000E+00  0.0000E+00  0.0000E+00  0.0000E+00  0.0000E+00  0.0000E+00  0.0000E+00  0.0000E+00  0.0000E+00  0.0000E+00  0.0000E+00
    -31.970  0.0000E+00  0.0000E+00  0.0000E+00  0.0000E+00  0.0000E+00  0.0000E+00  0.0000E+00  0.0000E+00  0.0000E+00  0.0000E+00  0.0000E+00  0.0000E+00  0.0000E+00  0.0000E+00  0.0000E+00  0.0000E+00  0.0000E+00  0.0000E+00
    -31.835  0.0000E+00  0.0000E+00  0.0000E+00  0.0000E+00  0.0000E+00  0.0000E+00  0.0000E+00  0.0000E+00  0.0000E+00  0.0000E+00  0.0000E+00  0.0000E+00  0.0000E+00  0.0000E+00  0.0000E+00  0.0000E+00  0.0000E+00  0.0000E+00
    -31.700  0.0000E+00  0.0000E+00  0.0000E+00  0.0000E+00  0.0000E+00  0.0000E+00  0.0000E+00  0.0000E+00  0.0000E+00  0.0000E+00  0.0000E+00  0.0000E+00  0.0000E+00  0.0000E+00  0.0000E+00  0.0000E+00  0.0000E+00  0.0000E+00
    -31.566  0.0000E+00  0.0000E+00  0.0000E+00  0.0000E+00  0.0000E+00  0.0000E+00  0.0000E+00  0.0000E+00  0.0000E+00  0.0000E+00  0.0000E+00  0.0000E+00  0.0000E+00  0.0000E+00  0.0000E+00  0.0000E+00  0.0000E+00  0.0000E+00
    -31.431  0.0000E+00  0.0000E+00  0.0000E+00  0.0000E+00  0.0000E+00  0.0000E+00  0.0000E+00  0.0000E+00  0.0000E+00  0.0000E+00  0.0000E+00  0.0000E+00  0.0000E+00  0.0000E+00  0.0000E+00  0.0000E+00  0.0000E+00  0.0000E+00
    -31.296  0.0000E+00  0.0000E+00  0.0000E+00  0.0000E+00  0.0000E+00  0.0000E+00  0.0000E+00  0.0000E+00  0.0000E+00  0.0000E+00  0.0000E+00  0.0000E+00  0.0000E+00  0.0000E+00  0.0000E+00  0.0000E+00  0.0000E+00  0.0000E+00
    -31.161  0.0000E+00  0.2922E+01  0.0000E+00  0.2494E-03  0.0000E+00  0.3961E-02  0.0000E+00  0.7756E+00  0.0000E+00  0.0000E+00  0.0000E+00  0.0000E+00  0.0000E+00  0.0000E+00  0.0000E+00  0.0000E+00  0.0000E+00  0.0000E+00
    -31.026  0.0000E+00  0.0000E+00  0.0000E+00  0.0000E+00  0.0000E+00  0.0000E+00  0.0000E+00  0.0000E+00  0.0000E+00  0.0000E+00  0.0000E+00  0.0000E+00  0.0000E+00  0.0000E+00  0.0000E+00  0.0000E+00  0.0000E+00  0.0000E+00
    -30.891  0.0000E+00  0.0000E+00  0.0000E+00  0.0000E+00  0.0000E+00  0.0000E+00  0.0000E+00  0.0000E+00  0.0000E+00  0.0000E+00  0.0000E+00  0.0000E+00  0.0000E+00  0.0000E+00  0.0000E+00  0.0000E+00  0.0000E+00  0.0000E+00
    -30.757  0.0000E+00  0.0000E+00  0.0000E+00  0.0000E+00  0.0000E+00  0.0000E+00  0.0000E+00  0.0000E+00  0.0000E+00  0.0000E+00  0.0000E+00  0.0000E+00  0.0000E+00  0.0000E+00  0.0000E+00  0.0000E+00  0.0000E+00  0.0000E+00
    -30.622  0.0000E+00  0.0000E+00  0.0000E+00  0.0000E+00  0.0000E+00  0.0000E+00  0.0000E+00  0.0000E+00  0.0000E+00  0.0000E+00  0.0000E+00  0.0000E+00  0.0000E+00  0.0000E+00  0.0000E+00  0.0000E+00  0.0000E+00  0.0000E+00
    -30.487  0.0000E+00  0.0000E+00  0.0000E+00  0.0000E+00  0.0000E+00  0.0000E+00  0.0000E+00  0.0000E+00  0.0000E+00  0.0000E+00  0.0000E+00  0.0000E+00  0.0000E+00  0.0000E+00  0.0000E+00  0.0000E+00  0.0000E+00  0.0000E+00
    -30.352  0.0000E+00  0.0000E+00  0.0000E+00  0.0000E+00  0.0000E+00  0.0000E+00  0.0000E+00  0.0000E+00  0.0000E+00  0.0000E+00  0.0000E+00  0.0000E+00  0.0000E+00  0.0000E+00  0.0000E+00  0.0000E+00  0.0000E+00  0.0000E+00
    -30.217  0.0000E+00  0.0000E+00  0.0000E+00  0.0000E+00  0.0000E+00  0.0000E+00  0.0000E+00  0.0000E+00  0.0000E+00  0.0000E+00  0.0000E+00  0.0000E+00  0.0000E+00  0.0000E+00  0.0000E+00  0.0000E+00  0.0000E+00  0.0000E+00
    -30.082  0.0000E+00  0.0000E+00  0.0000E+00  0.0000E+00  0.0000E+00  0.0000E+00  0.0000E+00  0.0000E+00  0.0000E+00  0.0000E+00  0.0000E+00  0.0000E+00  0.0000E+00  0.0000E+00  0.0000E+00  0.0000E+00  0.0000E+00  0.0000E+00
    -29.947  0.0000E+00  0.0000E+00  0.0000E+00  0.0000E+00  0.0000E+00  0.0000E+00  0.0000E+00  0.0000E+00  0.0000E+00  0.0000E+00  0.0000E+00  0.0000E+00  0.0000E+00  0.0000E+00  0.0000E+00  0.0000E+00  0.0000E+00  0.0000E+00
    -29.813  0.0000E+00  0.0000E+00  0.0000E+00  0.0000E+00  0.0000E+00  0.0000E+00  0.0000E+00  0.0000E+00  0.0000E+00  0.0000E+00  0.0000E+00  0.0000E+00  0.0000E+00  0.0000E+00  0.0000E+00  0.0000E+00  0.0000E+00  0.0000E+00
    -29.678  0.0000E+00  0.0000E+00  0.0000E+00  0.0000E+00  0.0000E+00  0.0000E+00  0.0000E+00  0.0000E+00  0.0000E+00  0.0000E+00  0.0000E+00  0.0000E+00  0.0000E+00  0.0000E+00  0.0000E+00  0.0000E+00  0.0000E+00  0.0000E+00
    -29.543  0.0000E+00  0.0000E+00  0.0000E+00  0.0000E+00  0.0000E+00  0.0000E+00  0.0000E+00  0.0000E+00  0.0000E+00  0.0000E+00  0.0000E+00  0.0000E+00  0.0000E+00  0.0000E+00  0.0000E+00  0.0000E+00  0.0000E+00  0.0000E+00
    -29.408  0.0000E+00  0.0000E+00  0.0000E+00  0.0000E+00  0.0000E+00  0.0000E+00  0.0000E+00  0.0000E+00  0.0000E+00  0.0000E+00  0.0000E+00  0.0000E+00  0.0000E+00  0.0000E+00  0.0000E+00  0.0000E+00  0.0000E+00  0.0000E+00
    -29.273  0.0000E+00  0.0000E+00  0.0000E+00  0.0000E+00  0.0000E+00  0.0000E+00  0.0000E+00  0.0000E+00  0.0000E+00  0.0000E+00  0.0000E+00  0.0000E+00  0.0000E+00  0.0000E+00  0.0000E+00  0.0000E+00  0.0000E+00  0.0000E+00
    -29.138  0.0000E+00  0.0000E+00  0.0000E+00  0.0000E+00  0.0000E+00  0.0000E+00  0.0000E+00  0.0000E+00  0.0000E+00  0.0000E+00  0.0000E+00  0.0000E+00  0.0000E+00  0.0000E+00  0.0000E+00  0.0000E+00  0.0000E+00  0.0000E+00
    -29.004  0.0000E+00  0.0000E+00  0.0000E+00  0.0000E+00  0.0000E+00  0.0000E+00  0.0000E+00  0.0000E+00  0.0000E+00  0.0000E+00  0.0000E+00  0.0000E+00  0.0000E+00  0.0000E+00  0.0000E+00  0.0000E+00  0.0000E+00  0.0000E+00
    -28.869  0.0000E+00  0.0000E+00  0.0000E+00  0.0000E+00  0.0000E+00  0.0000E+00  0.0000E+00  0.0000E+00  0.0000E+00  0.0000E+00  0.0000E+00  0.0000E+00  0.0000E+00  0.0000E+00  0.0000E+00  0.0000E+00  0.0000E+00  0.0000E+00
    -28.734  0.0000E+00  0.0000E+00  0.0000E+00  0.0000E+00  0.0000E+00  0.0000E+00  0.0000E+00  0.0000E+00  0.0000E+00  0.0000E+00  0.0000E+00  0.0000E+00  0.0000E+00  0.0000E+00  0.0000E+00  0.0000E+00  0.0000E+00  0.0000E+00
    -28.599  0.0000E+00  0.0000E+00  0.0000E+00  0.0000E+00  0.0000E+00  0.0000E+00  0.0000E+00  0.0000E+00  0.0000E+00  0.0000E+00  0.0000E+00  0.0000E+00  0.0000E+00  0.0000E+00  0.0000E+00  0.0000E+00  0.0000E+00  0.0000E+00
    -28.464  0.0000E+00  0.0000E+00  0.0000E+00  0.0000E+00  0.0000E+00  0.0000E+00  0.0000E+00  0.0000E+00  0.0000E+00  0.0000E+00  0.0000E+00  0.0000E+00  0.0000E+00  0.0000E+00  0.0000E+00  0.0000E+00  0.0000E+00  0.0000E+00
    -28.329  0.0000E+00  0.0000E+00  0.0000E+00  0.0000E+00  0.0000E+00  0.0000E+00  0.0000E+00  0.0000E+00  0.0000E+00  0.0000E+00  0.0000E+00  0.0000E+00  0.0000E+00  0.0000E+00  0.0000E+00  0.0000E+00  0.0000E+00  0.0000E+00
    -28.194  0.0000E+00  0.0000E+00  0.0000E+00  0.0000E+00  0.0000E+00  0.0000E+00  0.0000E+00  0.0000E+00  0.0000E+00  0.0000E+00  0.0000E+00  0.0000E+00  0.0000E+00  0.0000E+00  0.0000E+00  0.0000E+00  0.0000E+00  0.0000E+00
    -28.060  0.0000E+00  0.0000E+00  0.0000E+00  0.0000E+00  0.0000E+00  0.0000E+00  0.0000E+00  0.0000E+00  0.0000E+00  0.0000E+00  0.0000E+00  0.0000E+00  0.0000E+00  0.0000E+00  0.0000E+00  0.0000E+00  0.0000E+00  0.0000E+00
    -27.925  0.0000E+00  0.0000E+00  0.0000E+00  0.0000E+00  0.0000E+00  0.0000E+00  0.0000E+00  0.0000E+00  0.0000E+00  0.0000E+00  0.0000E+00  0.0000E+00  0.0000E+00  0.0000E+00  0.0000E+00  0.0000E+00  0.0000E+00  0.0000E+00
    -27.790  0.0000E+00  0.0000E+00  0.0000E+00  0.0000E+00  0.0000E+00  0.0000E+00  0.0000E+00  0.0000E+00  0.0000E+00  0.0000E+00  0.0000E+00  0.0000E+00  0.0000E+00  0.0000E+00  0.0000E+00  0.0000E+00  0.0000E+00  0.0000E+00
    -27.655  0.0000E+00  0.0000E+00  0.0000E+00  0.0000E+00  0.0000E+00  0.0000E+00  0.0000E+00  0.0000E+00  0.0000E+00  0.0000E+00  0.0000E+00  0.0000E+00  0.0000E+00  0.0000E+00  0.0000E+00  0.0000E+00  0.0000E+00  0.0000E+00
    -27.520  0.0000E+00  0.0000E+00  0.0000E+00  0.0000E+00  0.0000E+00  0.0000E+00  0.0000E+00  0.0000E+00  0.0000E+00  0.0000E+00  0.0000E+00  0.0000E+00  0.0000E+00  0.0000E+00  0.0000E+00  0.0000E+00  0.0000E+00  0.0000E+00