 running on   28 total cores
 distrk:  each k-point on   28 cores,    1 groups
 distr:  one band on    1 cores,   28 groups
 using from now: INCAR     
 vasp.5.4.4.18Apr17-6-g9f103f2a35 (build Mar 12 2019 21:14:03) complex          
  
 POSCAR found type information on POSCAR  O 
 POSCAR found :  1 types and       2 ions
 scaLAPACK will be used

 ----------------------------------------------------------------------------- 
|                                                                             |
|           W    W    AA    RRRRR   N    N  II  N    N   GGGG   !!!           |
|           W    W   A  A   R    R  NN   N  II  NN   N  G    G  !!!           |
|           W    W  A    A  R    R  N N  N  II  N N  N  G       !!!           |
|           W WW W  AAAAAA  RRRRR   N  N N  II  N  N N  G  GGG   !            |
|           WW  WW  A    A  R   R   N   NN  II  N   NN  G    G                |
|           W    W  A    A  R    R  N    N  II  N    N   GGGG   !!!           |
|                                                                             |
|      For optimal performance we recommend to set                            |
|        NCORE= 4 - approx SQRT( number of cores)                             |
|      NCORE specifies how many cores store one orbital (NPAR=cpu/NCORE).     |
|      This setting can  greatly improve the performance of VASP for DFT.     |
|      The default,   NCORE=1            might be grossly inefficient         |
|      on modern multi-core architectures or massively parallel machines.     |
|      Do your own testing !!!!                                               |
|      Unfortunately you need to use the default for GW and RPA calculations. |
|      (for HF NCORE is supported but not extensively tested yet)             |
|                                                                             |
 ----------------------------------------------------------------------------- 


 ----------------------------------------------------------------------------- 
|                                                                             |
|  ADVICE TO THIS USER RUNNING 'VASP/VAMP'   (HEAR YOUR MASTER'S VOICE ...):  |
|                                                                             |
|      You have a (more or less) 'small supercell' and for smaller cells      |
|      it is recommended  to use the reciprocal-space projection scheme!      |
|      The real space optimization is not  efficient for small cells and it   |
|      is also less accurate ...                                              |
|      Therefore set LREAL=.FALSE. in the  INCAR file                         |
|                                                                             |
 ----------------------------------------------------------------------------- 

 LDA part: xc-table for Pade appr. of Perdew
 POSCAR, INCAR and KPOINTS ok, starting setup
 FFT: planning ...
 WAVECAR not read
 entering main loop
       N       E                     dE             d eps       ncg     rms          rms(c)
DAV:   1     0.819781269116E+02    0.81978E+02   -0.31195E+03   140   0.203E+02
DAV:   2    -0.807893631878E+01   -0.90057E+02   -0.86881E+02   224   0.527E+01
DAV:   3    -0.903663026761E+01   -0.95769E+00   -0.95769E+00   112   0.893E+00
DAV:   4    -0.904275913867E+01   -0.61289E-02   -0.61289E-02   168   0.672E-01
DAV:   5    -0.904278564041E+01   -0.26502E-04   -0.26502E-04   168   0.311E-02    0.103E+01
RMM:   6    -0.409868302146E+01    0.49441E+01   -0.42768E+00   112   0.523E+00    0.379E+00
RMM:   7    -0.802809764863E+01   -0.39294E+01   -0.16408E+00   112   0.280E+00    0.158E+00
RMM:   8    -0.938539119220E+01   -0.13573E+01   -0.54736E-01   112   0.136E+00    0.696E-01
RMM:   9    -0.970743417352E+01   -0.32204E+00   -0.54944E-02   112   0.558E-01    0.299E-01
RMM:  10    -0.982194318077E+01   -0.11451E+00   -0.16006E-02   112   0.323E-01    0.103E-01
RMM:  11    -0.984022597601E+01   -0.18283E-01   -0.15240E-03   112   0.987E-02    0.544E-02
RMM:  12    -0.985412129617E+01   -0.13895E-01   -0.39791E-04   112   0.479E-02    0.127E-02
RMM:  13    -0.985588473252E+01   -0.17634E-02   -0.31825E-05   110   0.158E-02    0.507E-03
RMM:  14    -0.985606206695E+01   -0.17733E-03   -0.77585E-06   106   0.751E-03    0.346E-03
RMM:  15    -0.985622399761E+01   -0.16193E-03   -0.75848E-06   106   0.705E-03    0.183E-03
RMM:  16    -0.985628970561E+01   -0.65708E-04   -0.28732E-06   102   0.408E-03    0.153E-03
RMM:  17    -0.985636152871E+01   -0.71823E-04   -0.50603E-06   105   0.489E-03    0.138E-03
RMM:  18    -0.985639477398E+01   -0.33245E-04   -0.12943E-06   100   0.280E-03    0.572E-04
RMM:  19    -0.985642539018E+01   -0.30616E-04   -0.53466E-07    99   0.197E-03    0.560E-04
RMM:  20    -0.985642926982E+01   -0.38796E-05   -0.24538E-07    94   0.124E-03
   1 F= -.98564293E+01 E0= -.98564293E+01  d E =-.208408E-94  mag=     2.0000
 Finite differences POTIM= 0.02000 DOF=   6
 bond charge predicted
       N       E                     dE             d eps       ncg     rms          rms(c)
DAV:   1    -0.983995211212E+01    0.16473E-01   -0.21299E+00   140   0.527E+00    0.630E-01
RMM:   2    -0.983696285100E+01    0.29893E-02   -0.16382E-02   112   0.478E-01    0.318E-01
RMM:   3    -0.984035244468E+01   -0.33896E-02   -0.15307E-03   112   0.158E-01    0.128E-01
RMM:   4    -0.984100243288E+01   -0.64999E-03   -0.64109E-04   112   0.824E-02    0.430E-02
RMM:   5    -0.984119155842E+01   -0.18913E-03   -0.57113E-05   112   0.264E-02    0.202E-02
RMM:   6    -0.984121351032E+01   -0.21952E-04   -0.28533E-05   112   0.171E-02    0.391E-03
RMM:   7    -0.984124921585E+01   -0.35706E-04   -0.21756E-06   101   0.496E-03    0.156E-03
RMM:   8    -0.984126186215E+01   -0.12646E-04   -0.78871E-07   100   0.284E-03    0.106E-03
RMM:   9    -0.984127204622E+01   -0.10184E-04   -0.44448E-07   100   0.182E-03    0.713E-04
RMM:  10    -0.984127972998E+01   -0.76838E-05   -0.40808E-07    98   0.158E-03    0.431E-04
RMM:  11    -0.984128796590E+01   -0.82359E-05   -0.28503E-07    96   0.121E-03    0.322E-04
RMM:  12    -0.984129255710E+01   -0.45912E-05   -0.16675E-07    90   0.103E-03
   2 F= -.98412926E+01 E0= -.98412926E+01  d E =-.660795E-16  mag=     2.0000
 Finite differences progress:
  Degree of freedom:   1/  6
  Displacement:        1/  2
  Total:               1/ 12
 bond charge predicted
       N       E                     dE             d eps       ncg     rms          rms(c)
DAV:   1    -0.983911189852E+01    0.21761E-02   -0.84146E+00   168   0.104E+01    0.126E+00
RMM:   2    -0.982898537159E+01    0.10127E-01   -0.49829E-02   112   0.883E-01    0.613E-01
RMM:   3    -0.984008068184E+01   -0.11095E-01   -0.51349E-03   112   0.292E-01    0.250E-01
RMM:   4    -0.984188235917E+01   -0.18017E-02   -0.17724E-03   112   0.138E-01    0.879E-02
RMM:   5    -0.984242583198E+01   -0.54347E-03   -0.19903E-04   112   0.494E-02    0.346E-02
RMM:   6    -0.984257099670E+01   -0.14516E-03   -0.62123E-05   112   0.270E-02    0.561E-03
RMM:   7    -0.984263429052E+01   -0.63294E-04   -0.40138E-06   103   0.671E-03    0.260E-03
RMM:   8    -0.984266071050E+01   -0.26420E-04   -0.14440E-06   100   0.332E-03    0.142E-03
RMM:   9    -0.984268468831E+01   -0.23978E-04   -0.99430E-07   100   0.258E-03    0.836E-04
RMM:  10    -0.984270637901E+01   -0.21691E-04   -0.93329E-07    98   0.216E-03    0.665E-04
RMM:  11    -0.984271683551E+01   -0.10457E-04   -0.46651E-07    96   0.155E-03    0.388E-04
RMM:  12    -0.984272193360E+01   -0.50981E-05   -0.21278E-07    92   0.109E-03    0.209E-04
RMM:  13    -0.984272462515E+01   -0.26915E-05   -0.12476E-07    91   0.961E-04
   3 F= -.98427246E+01 E0= -.98427246E+01  d E =-.111426E-11  mag=     2.0000
 Finite differences progress:
  Degree of freedom:   1/  6
  Displacement:        2/  2
  Total:               2/ 12
 bond charge predicted
       N       E                     dE             d eps       ncg     rms          rms(c)
DAV:   1    -0.985173194695E+01   -0.90100E-02   -0.44587E+00   112   0.756E+00    0.714E-01
RMM:   2    -0.984686872372E+01    0.48632E-02   -0.30501E-02   112   0.714E-01    0.355E-01
RMM:   3    -0.985488334612E+01   -0.80146E-02   -0.19159E-03   112   0.184E-01    0.142E-01
RMM:   4    -0.985584850783E+01   -0.96516E-03   -0.80082E-04   112   0.916E-02    0.470E-02
RMM:   5    -0.985627073743E+01   -0.42223E-03   -0.60865E-05   112   0.303E-02    0.219E-02
RMM:   6    -0.985632538201E+01   -0.54645E-04   -0.41622E-05   112   0.213E-02    0.626E-03
RMM:   7    -0.985637367427E+01   -0.48292E-04   -0.30583E-06   102   0.623E-03    0.195E-03
RMM:   8    -0.985638490122E+01   -0.11227E-04   -0.87538E-07   100   0.310E-03    0.109E-03
RMM:   9    -0.985639436754E+01   -0.94663E-05   -0.39465E-07    98   0.183E-03    0.576E-04
RMM:  10    -0.985640157867E+01   -0.72111E-05   -0.30536E-07    95   0.135E-03    0.383E-04
RMM:  11    -0.985640982617E+01   -0.82475E-05   -0.31833E-07    96   0.132E-03    0.329E-04
RMM:  12    -0.985641440930E+01   -0.45831E-05   -0.20036E-07    93   0.105E-03
   4 F= -.98564144E+01 E0= -.98564144E+01  d E =-.168449E-25  mag=     2.0000
 Finite differences progress:
  Degree of freedom:   2/  6
  Displacement:        1/  2
  Total:               3/ 12
 bond charge predicted
       N       E                     dE             d eps       ncg     rms          rms(c)
DAV:   1    -0.984412434710E+01    0.12285E-01   -0.92936E+00   112   0.106E+01    0.756E-01
RMM:   2    -0.983717526108E+01    0.69491E-02   -0.60159E-02   112   0.906E-01    0.349E-01
RMM:   3    -0.985331292173E+01   -0.16138E-01   -0.23746E-03   112   0.207E-01    0.132E-01
RMM:   4    -0.985536898921E+01   -0.20561E-02   -0.41478E-04   112   0.625E-02    0.510E-02
RMM:   5    -0.985603447482E+01   -0.66549E-03   -0.85662E-05   112   0.352E-02    0.122E-02
RMM:   6    -0.985631319917E+01   -0.27872E-03   -0.97975E-06   107   0.897E-03    0.654E-03
RMM:   7    -0.985634411062E+01   -0.30911E-04   -0.49039E-06   103   0.667E-03    0.187E-03
RMM:   8    -0.985636906980E+01   -0.24959E-04   -0.69974E-07    99   0.278E-03    0.766E-04
RMM:   9    -0.985637292126E+01   -0.38515E-05   -0.16765E-07    96   0.125E-03
   5 F= -.98563729E+01 E0= -.98563729E+01  d E =-.611277E-17  mag=     2.0000
 Finite differences progress:
  Degree of freedom:   2/  6
  Displacement:        2/  2
  Total:               4/ 12
 bond charge predicted
       N       E                     dE             d eps       ncg     rms          rms(c)
DAV:   1    -0.985009530612E+01    0.62738E-02   -0.46440E+00   112   0.757E+00    0.537E-01
RMM:   2    -0.984546170219E+01    0.46336E-02   -0.31504E-02   112   0.667E-01    0.247E-01
RMM:   3    -0.985453896045E+01   -0.90773E-02   -0.13039E-03   112   0.158E-01    0.935E-02
RMM:   4    -0.985563686483E+01   -0.10979E-02   -0.20647E-04   112   0.465E-02    0.368E-02
RMM:   5    -0.985612649248E+01   -0.48963E-03   -0.50360E-05   112   0.295E-02    0.819E-03
RMM:   6    -0.985629020206E+01   -0.16371E-03   -0.42075E-06   103   0.633E-03    0.457E-03
RMM:   7    -0.985633228326E+01   -0.42081E-04   -0.22030E-06   100   0.457E-03    0.129E-03
RMM:   8    -0.985634057166E+01   -0.82884E-05   -0.53032E-07    98   0.245E-03    0.359E-04
RMM:   9    -0.985634502777E+01   -0.44561E-05   -0.80105E-08    90   0.847E-04
   6 F= -.98563450E+01 E0= -.98563450E+01  d E =-.518692E-21  mag=     2.0000
 Finite differences progress:
  Degree of freedom:   3/  6
  Displacement:        1/  2
  Total:               5/ 12
 bond charge predicted
       N       E                     dE             d eps       ncg     rms          rms(c)
DAV:   1    -0.984331946579E+01    0.13021E-01   -0.92838E+00   112   0.106E+01    0.760E-01
RMM:   2    -0.983674607251E+01    0.65734E-02   -0.67613E-02   112   0.939E-01    0.353E-01
RMM:   3    -0.985301902497E+01   -0.16273E-01   -0.26899E-03   112   0.211E-01    0.134E-01
RMM:   4    -0.985506595539E+01   -0.20469E-02   -0.44296E-04   112   0.658E-02    0.523E-02
RMM:   5    -0.985599489564E+01   -0.92894E-03   -0.88615E-05   112   0.354E-02    0.133E-02
RMM:   6    -0.985626699844E+01   -0.27210E-03   -0.97332E-06   107   0.936E-03    0.725E-03
RMM:   7    -0.985634499208E+01   -0.77994E-04   -0.52723E-06   103   0.735E-03    0.214E-03
RMM:   8    -0.985635825424E+01   -0.13262E-04   -0.71046E-07   100   0.306E-03    0.877E-04
RMM:   9    -0.985635906515E+01   -0.81090E-06   -0.18001E-07    97   0.134E-03
   7 F= -.98563591E+01 E0= -.98563591E+01  d E =-.382791E-14  mag=     2.0000
 Finite differences progress:
  Degree of freedom:   3/  6
  Displacement:        2/  2
  Total:               6/ 12
 bond charge predicted
       N       E                     dE             d eps       ncg     rms          rms(c)
DAV:   1    -0.983747986184E+01    0.18878E-01   -0.44732E+00   112   0.754E+00    0.727E-01
RMM:   2    -0.983217809857E+01    0.53018E-02   -0.37289E-02   112   0.761E-01    0.353E-01
RMM:   3    -0.984081341830E+01   -0.86353E-02   -0.22046E-03   112   0.199E-01    0.142E-01
RMM:   4    -0.984195745892E+01   -0.11440E-02   -0.70278E-04   112   0.853E-02    0.497E-02
RMM:   5    -0.984248534923E+01   -0.52789E-03   -0.65994E-05   112   0.306E-02    0.208E-02
RMM:   6    -0.984260904697E+01   -0.12370E-03   -0.22680E-05   112   0.165E-02    0.487E-03
RMM:   7    -0.984264517067E+01   -0.36124E-04   -0.21648E-06   100   0.571E-03    0.171E-03
RMM:   8    -0.984265371115E+01   -0.85405E-05   -0.66729E-07   100   0.245E-03    0.932E-04
RMM:   9    -0.984266406768E+01   -0.10357E-04   -0.45356E-07    98   0.182E-03    0.531E-04
RMM:  10    -0.984267155501E+01   -0.74873E-05   -0.28963E-07    94   0.130E-03    0.395E-04
RMM:  11    -0.984267703105E+01   -0.54760E-05   -0.21494E-07    95   0.111E-03    0.331E-04
RMM:  12    -0.984267951807E+01   -0.24870E-05   -0.10490E-07    91   0.830E-04
   8 F= -.98426795E+01 E0= -.98426795E+01  d E =-.351168E-92  mag=     2.0000
 Finite differences progress:
  Degree of freedom:   4/  6
  Displacement:        1/  2
  Total:               7/ 12
 bond charge predicted
       N       E                     dE             d eps       ncg     rms          rms(c)
DAV:   1    -0.983739056344E+01    0.52865E-02   -0.85544E+00   168   0.106E+01    0.125E+00
RMM:   2    -0.982708895815E+01    0.10302E-01   -0.54066E-02   112   0.937E-01    0.617E-01
RMM:   3    -0.983896688750E+01   -0.11878E-01   -0.55346E-03   112   0.297E-01    0.250E-01
RMM:   4    -0.984051193186E+01   -0.15450E-02   -0.21677E-03   112   0.152E-01    0.847E-02
RMM:   5    -0.984093494593E+01   -0.42301E-03   -0.21513E-04   112   0.495E-02    0.376E-02
RMM:   6    -0.984104761438E+01   -0.11267E-03   -0.10002E-04   112   0.321E-02    0.735E-03
RMM:   7    -0.984114622352E+01   -0.98609E-04   -0.76409E-06   107   0.838E-03    0.302E-03
RMM:   8    -0.984118396670E+01   -0.37743E-04   -0.26493E-06   101   0.470E-03    0.210E-03
RMM:   9    -0.984120957749E+01   -0.25611E-04   -0.13420E-06   100   0.306E-03    0.960E-04
RMM:  10    -0.984123059121E+01   -0.21014E-04   -0.12260E-06   100   0.263E-03    0.841E-04
RMM:  11    -0.984125114621E+01   -0.20555E-04   -0.10719E-06    98   0.212E-03    0.401E-04
RMM:  12    -0.984125944450E+01   -0.82983E-05   -0.49993E-07    96   0.144E-03    0.250E-04
RMM:  13    -0.984126646859E+01   -0.70241E-05   -0.36241E-07    97   0.127E-03    0.240E-04
RMM:  14    -0.984126864511E+01   -0.21765E-05   -0.11562E-07    89   0.825E-04
   9 F= -.98412686E+01 E0= -.98412686E+01  d E =-.151962E-13  mag=     2.0000
 Finite differences progress:
  Degree of freedom:   4/  6
  Displacement:        2/  2
  Total:               8/ 12
 bond charge predicted
       N       E                     dE             d eps       ncg     rms          rms(c)
DAV:   1    -0.985182538391E+01   -0.10559E-01   -0.44348E+00   112   0.752E+00    0.732E-01
RMM:   2    -0.984571776973E+01    0.61076E-02   -0.33011E-02   112   0.721E-01    0.356E-01
RMM:   3    -0.985469929482E+01   -0.89815E-02   -0.20587E-03   112   0.190E-01    0.143E-01
RMM:   4    -0.985580343889E+01   -0.11041E-02   -0.70880E-04   112   0.861E-02    0.492E-02
RMM:   5    -0.985626959664E+01   -0.46616E-03   -0.72392E-05   112   0.320E-02    0.203E-02
RMM:   6    -0.985632085781E+01   -0.51261E-04   -0.29471E-05   112   0.208E-02    0.442E-03
RMM:   7    -0.985636864337E+01   -0.47786E-04   -0.21442E-06   100   0.575E-03    0.173E-03
RMM:   8    -0.985637261347E+01   -0.39701E-05   -0.73098E-07    98   0.268E-03
  10 F= -.98563726E+01 E0= -.98563726E+01  d E =-.196356E-74  mag=     2.0000
 Finite differences progress:
  Degree of freedom:   5/  6
  Displacement:        1/  2
  Total:               9/ 12
 bond charge predicted
       N       E                     dE             d eps       ncg     rms          rms(c)
DAV:   1    -0.984387196076E+01    0.12497E-01   -0.92899E+00   112   0.106E+01    0.756E-01
RMM:   2    -0.983694371739E+01    0.69282E-02   -0.63033E-02   112   0.913E-01    0.348E-01
RMM:   3    -0.985328449221E+01   -0.16341E-01   -0.24148E-03   112   0.205E-01    0.131E-01
RMM:   4    -0.985527156886E+01   -0.19871E-02   -0.40237E-04   112   0.613E-02    0.513E-02
RMM:   5    -0.985606418750E+01   -0.79262E-03   -0.87254E-05   112   0.347E-02    0.120E-02
RMM:   6    -0.985634723939E+01   -0.28305E-03   -0.87669E-06   106   0.832E-03    0.655E-03
RMM:   7    -0.985638338459E+01   -0.36145E-04   -0.50704E-06   104   0.653E-03    0.186E-03
RMM:   8    -0.985641091067E+01   -0.27526E-04   -0.67751E-07    99   0.278E-03    0.736E-04
RMM:   9    -0.985641599850E+01   -0.50878E-05   -0.13544E-07    93   0.119E-03    0.313E-04
RMM:  10    -0.985641811932E+01   -0.21208E-05   -0.57530E-08    91   0.927E-04
  11 F= -.98564181E+01 E0= -.98564181E+01  d E =-.623435E-12  mag=     2.0000
 Finite differences progress:
  Degree of freedom:   5/  6
  Displacement:        2/  2
  Total:              10/ 12
 bond charge predicted
       N       E                     dE             d eps       ncg     rms          rms(c)
DAV:   1    -0.985021395165E+01    0.62020E-02   -0.46467E+00   112   0.757E+00    0.535E-01
RMM:   2    -0.984538775298E+01    0.48262E-02   -0.31282E-02   112   0.647E-01    0.248E-01
RMM:   3    -0.985453508941E+01   -0.91473E-02   -0.13775E-03   112   0.156E-01    0.937E-02
RMM:   4    -0.985565908496E+01   -0.11240E-02   -0.23235E-04   112   0.497E-02    0.358E-02
RMM:   5    -0.985614342721E+01   -0.48434E-03   -0.47958E-05   112   0.270E-02    0.903E-03
RMM:   6    -0.985630880162E+01   -0.16537E-03   -0.57468E-06   104   0.732E-03    0.476E-03
RMM:   7    -0.985633972377E+01   -0.30922E-04   -0.27591E-06   101   0.538E-03    0.136E-03
RMM:   8    -0.985635063688E+01   -0.10913E-04   -0.52805E-07    98   0.244E-03    0.584E-04
RMM:   9    -0.985635210400E+01   -0.14671E-05   -0.83178E-08    91   0.984E-04
  12 F= -.98563521E+01 E0= -.98563521E+01  d E =-.644199E-13  mag=     2.0000
 Finite differences progress:
  Degree of freedom:   6/  6
  Displacement:        1/  2
  Total:              11/ 12
 bond charge predicted
       N       E                     dE             d eps       ncg     rms          rms(c)
DAV:   1    -0.984390902086E+01    0.12442E-01   -0.92851E+00   112   0.106E+01    0.758E-01
RMM:   2    -0.983640842389E+01    0.75006E-02   -0.62755E-02   112   0.913E-01    0.349E-01
RMM:   3    -0.985302071364E+01   -0.16612E-01   -0.25470E-03   112   0.205E-01    0.132E-01
RMM:   4    -0.985502455523E+01   -0.20038E-02   -0.39790E-04   112   0.631E-02    0.518E-02
RMM:   5    -0.985594445911E+01   -0.91990E-03   -0.93973E-05   112   0.383E-02    0.120E-02
RMM:   6    -0.985621387235E+01   -0.26941E-03   -0.80328E-06   106   0.847E-03    0.656E-03
RMM:   7    -0.985628388654E+01   -0.70014E-04   -0.38648E-06   102   0.617E-03    0.179E-03
RMM:   8    -0.985630234380E+01   -0.18457E-04   -0.71097E-07   100   0.277E-03    0.620E-04
RMM:   9    -0.985630789950E+01   -0.55557E-05   -0.12753E-07    92   0.107E-03    0.298E-04
RMM:  10    -0.985630913327E+01   -0.12338E-05   -0.61989E-08    91   0.908E-04
  13 F= -.98563091E+01 E0= -.98563091E+01  d E =-.835494E-20  mag=     2.0000
 Finite differences progress:
  Degree of freedom:   6/  6
  Displacement:        2/  2
  Total:              12/ 12
 Finite differences POTIM=  2.000000000000000E-002
