PROCAR lm decomposed
# of k-points:    1         # of bands:   28         # of ions:    2

 k-point     1 :    0.00000000 0.00000000 0.00000000     weight = 1.00000000

band     1 # energy  -32.42367256 # occ.  1.00000000
 
ion      s     py     pz     px    dxy    dyz    dz2    dxz  x2-y2    tot
    1  0.401  0.000  0.000  0.094  0.000  0.000  0.000  0.000  0.000  0.496
    2  0.401  0.000  0.000  0.094  0.000  0.000  0.000  0.000  0.000  0.496
tot    0.802  0.000  0.001  0.189  0.000  0.000  0.000  0.000  0.000  0.992
 
band     2 # energy  -20.57622349 # occ.  1.00000000
 
ion      s     py     pz     px    dxy    dyz    dz2    dxz  x2-y2    tot
    1  0.373  0.000  0.000  0.040  0.000  0.000  0.000  0.000  0.000  0.414
    2  0.373  0.000  0.000  0.040  0.000  0.000  0.000  0.000  0.000  0.414
tot    0.747  0.000  0.000  0.080  0.000  0.000  0.000  0.000  0.000  0.827
 
band     3 # energy  -13.33451153 # occ.  1.00000000
 
ion      s     py     pz     px    dxy    dyz    dz2    dxz  x2-y2    tot
    1  0.041  0.000  0.002  0.379  0.000  0.000  0.000  0.000  0.000  0.423
    2  0.041  0.000  0.002  0.379  0.000  0.000  0.000  0.000  0.000  0.423
tot    0.082  0.000  0.004  0.759  0.000  0.000  0.000  0.000  0.000  0.845
 
band     4 # energy  -13.18368605 # occ.  1.00000000
 
ion      s     py     pz     px    dxy    dyz    dz2    dxz  x2-y2    tot
    1  0.000  0.372  0.000  0.000  0.000  0.000  0.000  0.000  0.000  0.373
    2  0.000  0.372  0.000  0.000  0.000  0.000  0.000  0.000  0.000  0.373
tot    0.000  0.745  0.000  0.000  0.000  0.000  0.000  0.000  0.000  0.745
 
band     5 # energy  -13.18331319 # occ.  1.00000000
 
ion      s     py     pz     px    dxy    dyz    dz2    dxz  x2-y2    tot
    1  0.000  0.000  0.371  0.002  0.000  0.000  0.000  0.000  0.000  0.373
    2  0.000  0.000  0.371  0.002  0.000  0.000  0.000  0.000  0.000  0.373
tot    0.000  0.000  0.741  0.004  0.000  0.000  0.000  0.000  0.000  0.745
 
band     6 # energy   -6.88573031 # occ.  1.00000000
 
ion      s     py     pz     px    dxy    dyz    dz2    dxz  x2-y2    tot
    1  0.000  0.377  0.012  0.000  0.000  0.000  0.000  0.000  0.000  0.388
    2  0.000  0.377  0.012  0.000  0.000  0.000  0.000  0.000  0.000  0.388
tot    0.000  0.754  0.023  0.000  0.000  0.000  0.000  0.000  0.000  0.777
 
band     7 # energy   -6.88569534 # occ.  1.00000000
 
ion      s     py     pz     px    dxy    dyz    dz2    dxz  x2-y2    tot
    1  0.000  0.011  0.375  0.002  0.000  0.000  0.000  0.000  0.000  0.388
    2  0.000  0.011  0.375  0.002  0.000  0.000  0.000  0.000  0.000  0.388
tot    0.000  0.023  0.750  0.004  0.000  0.000  0.000  0.000  0.000  0.777
 
band     8 # energy   -0.30956081 # occ.  0.00000000
 
ion      s     py     pz     px    dxy    dyz    dz2    dxz  x2-y2    tot
    1  0.004  0.000  0.000  0.003  0.000  0.000  0.000  0.000  0.000  0.007
    2  0.004  0.000  0.000  0.003  0.000  0.000  0.000  0.000  0.000  0.007
tot    0.009  0.000  0.000  0.005  0.000  0.000  0.000  0.000  0.000  0.014
 
band     9 # energy    0.91038689 # occ.  0.00000000
 
ion      s     py     pz     px    dxy    dyz    dz2    dxz  x2-y2    tot
    1  0.001  0.000  0.004  0.002  0.000  0.000  0.000  0.000  0.000  0.007
    2  0.001  0.000  0.004  0.002  0.000  0.000  0.000  0.000  0.000  0.007
tot    0.002  0.000  0.008  0.004  0.000  0.000  0.000  0.000  0.000  0.015
 
band    10 # energy    1.02257987 # occ.  0.00000000
 
ion      s     py     pz     px    dxy    dyz    dz2    dxz  x2-y2    tot
    1  0.024  0.000  0.001  0.033  0.000  0.000  0.000  0.000  0.000  0.057
    2  0.023  0.000  0.001  0.033  0.000  0.000  0.000  0.000  0.000  0.057
tot    0.047  0.000  0.002  0.066  0.000  0.000  0.000  0.000  0.000  0.115
 
band    11 # energy    1.06294037 # occ.  0.00000000
 
ion      s     py     pz     px    dxy    dyz    dz2    dxz  x2-y2    tot
    1  0.003  0.000  0.000  0.002  0.000  0.000  0.000  0.000  0.000  0.005
    2  0.004  0.000  0.000  0.002  0.000  0.000  0.000  0.000  0.000  0.006
tot    0.007  0.000  0.000  0.004  0.000  0.000  0.000  0.000  0.000  0.011
 
band    12 # energy    1.11919843 # occ.  0.00000000
 
ion      s     py     pz     px    dxy    dyz    dz2    dxz  x2-y2    tot
    1  0.000  0.006  0.000  0.000  0.000  0.000  0.000  0.000  0.000  0.006
    2  0.000  0.006  0.000  0.000  0.000  0.000  0.000  0.000  0.000  0.006
tot    0.000  0.012  0.000  0.000  0.000  0.000  0.000  0.000  0.000  0.012
 
band    13 # energy    1.35371713 # occ.  0.00000000
 
ion      s     py     pz     px    dxy    dyz    dz2    dxz  x2-y2    tot
    1  0.001  0.000  0.000  0.001  0.000  0.000  0.000  0.000  0.000  0.002
    2  0.001  0.000  0.000  0.001  0.000  0.000  0.000  0.000  0.000  0.002
tot    0.003  0.000  0.000  0.001  0.000  0.000  0.000  0.000  0.000  0.004
 
band    14 # energy    1.58803223 # occ.  0.00000000
 
ion      s     py     pz     px    dxy    dyz    dz2    dxz  x2-y2    tot
    1  0.001  0.000  0.000  0.000  0.000  0.000  0.000  0.000  0.000  0.001
    2  0.001  0.000  0.000  0.000  0.000  0.000  0.000  0.000  0.000  0.001
tot    0.002  0.000  0.000  0.000  0.000  0.000  0.000  0.000  0.000  0.002
 
band    15 # energy    2.35474586 # occ.  0.00000000
 
ion      s     py     pz     px    dxy    dyz    dz2    dxz  x2-y2    tot
    1  0.016  0.000  0.000  0.053  0.000  0.000  0.000  0.000  0.000  0.069
    2  0.016  0.000  0.000  0.054  0.000  0.000  0.000  0.000  0.000  0.069
tot    0.031  0.000  0.000  0.107  0.000  0.000  0.000  0.000  0.000  0.139
 
band    16 # energy    2.44409119 # occ.  0.00000000
 
ion      s     py     pz     px    dxy    dyz    dz2    dxz  x2-y2    tot
    1  0.000  0.000  0.000  0.000  0.000  0.000  0.000  0.000  0.000  0.000
    2  0.000  0.000  0.000  0.000  0.000  0.000  0.000  0.000  0.000  0.000
tot    0.000  0.000  0.000  0.000  0.000  0.000  0.000  0.000  0.000  0.000
 
band    17 # energy    2.45697211 # occ.  0.00000000
 
ion      s     py     pz     px    dxy    dyz    dz2    dxz  x2-y2    tot
    1  0.000  0.000  0.005  0.000  0.000  0.000  0.000  0.000  0.000  0.005
    2  0.000  0.000  0.005  0.000  0.000  0.000  0.000  0.000  0.000  0.005
tot    0.000  0.000  0.010  0.000  0.000  0.000  0.000  0.000  0.000  0.010
 
band    18 # energy    2.47917660 # occ.  0.00000000
 
ion      s     py     pz     px    dxy    dyz    dz2    dxz  x2-y2    tot
    1  0.000  0.004  0.000  0.000  0.000  0.000  0.000  0.000  0.000  0.004
    2  0.000  0.004  0.000  0.000  0.000  0.000  0.000  0.000  0.000  0.004
tot    0.000  0.008  0.000  0.000  0.000  0.000  0.000  0.000  0.000  0.008
 
band    19 # energy    2.69952520 # occ.  0.00000000
 
ion      s     py     pz     px    dxy    dyz    dz2    dxz  x2-y2    tot
    1  0.001  0.000  0.000  0.002  0.000  0.000  0.000  0.000  0.000  0.003
    2  0.001  0.000  0.000  0.001  0.000  0.000  0.000  0.000  0.000  0.003
tot    0.003  0.000  0.000  0.003  0.000  0.000  0.000  0.000  0.000  0.005
 
band    20 # energy    2.74735430 # occ.  0.00000000
 
ion      s     py     pz     px    dxy    dyz    dz2    dxz  x2-y2    tot
    1  0.000  0.000  0.004  0.000  0.000  0.000  0.000  0.000  0.000  0.004
    2  0.000  0.000  0.005  0.000  0.000  0.000  0.000  0.000  0.000  0.005
tot    0.000  0.000  0.009  0.000  0.000  0.000  0.000  0.000  0.000  0.009
 
band    21 # energy    2.93156112 # occ.  0.00000000
 
ion      s     py     pz     px    dxy    dyz    dz2    dxz  x2-y2    tot
    1  0.002  0.000  0.000  0.000  0.000  0.000  0.000  0.000  0.000  0.003
    2  0.002  0.000  0.000  0.000  0.000  0.000  0.000  0.000  0.000  0.003
tot    0.004  0.001  0.000  0.000  0.000  0.000  0.000  0.000  0.000  0.006
 
band    22 # energy    2.93968618 # occ.  0.00000000
 
ion      s     py     pz     px    dxy    dyz    dz2    dxz  x2-y2    tot
    1  0.001  0.000  0.001  0.000  0.000  0.000  0.000  0.000  0.000  0.002
    2  0.000  0.000  0.001  0.000  0.000  0.000  0.000  0.000  0.000  0.001
tot    0.001  0.000  0.002  0.000  0.000  0.000  0.000  0.000  0.000  0.003
 
band    23 # energy    2.94964165 # occ.  0.00000000
 
ion      s     py     pz     px    dxy    dyz    dz2    dxz  x2-y2    tot
    1  0.000  0.005  0.000  0.000  0.000  0.000  0.000  0.000  0.000  0.006
    2  0.000  0.005  0.000  0.000  0.000  0.000  0.000  0.000  0.000  0.005
tot    0.000  0.010  0.000  0.000  0.000  0.000  0.000  0.000  0.000  0.011
 
band    24 # energy    3.15250529 # occ.  0.00000000
 
ion      s     py     pz     px    dxy    dyz    dz2    dxz  x2-y2    tot
    1  0.001  0.000  0.000  0.007  0.000  0.000  0.000  0.000  0.000  0.009
    2  0.001  0.000  0.000  0.007  0.000  0.000  0.000  0.000  0.000  0.009
tot    0.002  0.000  0.000  0.015  0.000  0.000  0.000  0.000  0.000  0.017
 
band    25 # energy    3.15334651 # occ.  0.00000000
 
ion      s     py     pz     px    dxy    dyz    dz2    dxz  x2-y2    tot
    1  0.000  0.002  0.000  0.000  0.000  0.000  0.000  0.000  0.000  0.002
    2  0.000  0.002  0.000  0.000  0.000  0.000  0.000  0.000  0.000  0.002
tot    0.000  0.004  0.000  0.000  0.000  0.000  0.000  0.000  0.000  0.004
 
band    26 # energy    3.19756372 # occ.  0.00000000
 
ion      s     py     pz     px    dxy    dyz    dz2    dxz  x2-y2    tot
    1  0.001  0.000  0.000  0.000  0.000  0.000  0.000  0.000  0.000  0.001
    2  0.001  0.000  0.000  0.000  0.000  0.000  0.000  0.000  0.000  0.001
tot    0.001  0.000  0.000  0.000  0.000  0.000  0.000  0.000  0.000  0.002
 
band    27 # energy    3.70802935 # occ.  0.00000000
 
ion      s     py     pz     px    dxy    dyz    dz2    dxz  x2-y2    tot
    1  0.013  0.000  0.000  0.114  0.000  0.000  0.000  0.000  0.000  0.127
    2  0.013  0.000  0.000  0.114  0.000  0.000  0.000  0.000  0.000  0.127
tot    0.026  0.000  0.001  0.227  0.000  0.000  0.000  0.000  0.000  0.254
 
band    28 # energy    4.31362974 # occ.  0.00000000
 
ion      s     py     pz     px    dxy    dyz    dz2    dxz  x2-y2    tot
    1  0.000  0.000  0.000  0.000  0.000  0.000  0.000  0.000  0.000  0.000
    2  0.000  0.000  0.000  0.000  0.000  0.000  0.000  0.000  0.000  0.000
tot    0.000  0.000  0.000  0.000  0.000  0.000  0.000  0.000  0.000  0.000
 
# of k-points:    1         # of bands:   28         # of ions:    2

 k-point     1 :    0.00000000 0.00000000 0.00000000     weight = 1.00000000

band     1 # energy  -31.19775432 # occ.  1.00000000
 
ion      s     py     pz     px    dxy    dyz    dz2    dxz  x2-y2    tot
    1  0.394  0.000  0.001  0.105  0.000  0.000  0.000  0.000  0.000  0.499
    2  0.394  0.000  0.001  0.105  0.000  0.000  0.000  0.000  0.000  0.499
tot    0.788  0.000  0.001  0.209  0.000  0.000  0.000  0.000  0.000  0.998
 
band     2 # energy  -18.77976374 # occ.  1.00000000
 
ion      s     py     pz     px    dxy    dyz    dz2    dxz  x2-y2    tot
    1  0.365  0.000  0.000  0.044  0.000  0.000  0.000  0.000  0.000  0.410
    2  0.365  0.000  0.000  0.044  0.000  0.000  0.000  0.000  0.000  0.410
tot    0.731  0.000  0.000  0.089  0.000  0.000  0.000  0.000  0.000  0.820
 
band     3 # energy  -12.40818868 # occ.  1.00000000
 
ion      s     py     pz     px    dxy    dyz    dz2    dxz  x2-y2    tot
    1  0.046  0.000  0.002  0.368  0.000  0.000  0.000  0.000  0.000  0.416
    2  0.046  0.000  0.002  0.368  0.000  0.000  0.000  0.000  0.000  0.416
tot    0.092  0.000  0.004  0.735  0.000  0.000  0.000  0.000  0.000  0.831
 
band     4 # energy  -11.33696174 # occ.  1.00000000
 
ion      s     py     pz     px    dxy    dyz    dz2    dxz  x2-y2    tot
    1  0.000  0.359  0.000  0.000  0.000  0.000  0.000  0.000  0.000  0.359
    2  0.000  0.359  0.000  0.000  0.000  0.000  0.000  0.000  0.000  0.359
tot    0.000  0.717  0.000  0.000  0.000  0.000  0.000  0.000  0.000  0.717
 
band     5 # energy  -11.33667813 # occ.  1.00000000
 
ion      s     py     pz     px    dxy    dyz    dz2    dxz  x2-y2    tot
    1  0.000  0.000  0.357  0.002  0.000  0.000  0.000  0.000  0.000  0.359
    2  0.000  0.000  0.357  0.002  0.000  0.000  0.000  0.000  0.000  0.359
tot    0.000  0.000  0.714  0.004  0.000  0.000  0.000  0.000  0.000  0.718
 
band     6 # energy   -4.60619494 # occ.  0.00000000
 
ion      s     py     pz     px    dxy    dyz    dz2    dxz  x2-y2    tot
    1  0.000  0.024  0.347  0.002  0.000  0.000  0.000  0.000  0.000  0.373
    2  0.000  0.024  0.347  0.002  0.000  0.000  0.000  0.000  0.000  0.373
tot    0.000  0.049  0.694  0.003  0.000  0.000  0.000  0.000  0.000  0.746
 
band     7 # energy   -4.60616464 # occ.  0.00000000
 
ion      s     py     pz     px    dxy    dyz    dz2    dxz  x2-y2    tot
    1  0.000  0.349  0.024  0.000  0.000  0.000  0.000  0.000  0.000  0.373
    2  0.000  0.349  0.024  0.000  0.000  0.000  0.000  0.000  0.000  0.373
tot    0.000  0.697  0.048  0.001  0.000  0.000  0.000  0.000  0.000  0.746
 
band     8 # energy   -0.19877134 # occ.  0.00000000
 
ion      s     py     pz     px    dxy    dyz    dz2    dxz  x2-y2    tot
    1  0.004  0.000  0.000  0.002  0.000  0.000  0.000  0.000  0.000  0.006
    2  0.004  0.000  0.000  0.002  0.000  0.000  0.000  0.000  0.000  0.006
tot    0.008  0.000  0.000  0.005  0.000  0.000  0.000  0.000  0.000  0.012
 
band     9 # energy    1.02306037 # occ.  0.00000000
 
ion      s     py     pz     px    dxy    dyz    dz2    dxz  x2-y2    tot
    1  0.000  0.000  0.005  0.000  0.000  0.000  0.000  0.000  0.000  0.005
    2  0.000  0.000  0.005  0.000  0.000  0.000  0.000  0.000  0.000  0.005
tot    0.000  0.000  0.010  0.000  0.000  0.000  0.000  0.000  0.000  0.010
 
band    10 # energy    1.13742875 # occ.  0.00000000
 
ion      s     py     pz     px    dxy    dyz    dz2    dxz  x2-y2    tot
    1  0.003  0.000  0.000  0.002  0.000  0.000  0.000  0.000  0.000  0.005
    2  0.003  0.000  0.000  0.002  0.000  0.000  0.000  0.000  0.000  0.005
tot    0.007  0.000  0.000  0.004  0.000  0.000  0.000  0.000  0.000  0.011
 
band    11 # energy    1.24218967 # occ.  0.00000000
 
ion      s     py     pz     px    dxy    dyz    dz2    dxz  x2-y2    tot
    1  0.000  0.006  0.000  0.000  0.000  0.000  0.000  0.000  0.000  0.006
    2  0.000  0.006  0.000  0.000  0.000  0.000  0.000  0.000  0.000  0.006
tot    0.000  0.012  0.000  0.000  0.000  0.000  0.000  0.000  0.000  0.012
 
band    12 # energy    1.35384908 # occ.  0.00000000
 
ion      s     py     pz     px    dxy    dyz    dz2    dxz  x2-y2    tot
    1  0.017  0.000  0.000  0.012  0.000  0.000  0.000  0.000  0.000  0.029
    2  0.017  0.000  0.000  0.012  0.000  0.000  0.000  0.000  0.000  0.029
tot    0.034  0.000  0.000  0.025  0.000  0.000  0.000  0.000  0.000  0.059
 
band    13 # energy    1.42080922 # occ.  0.00000000
 
ion      s     py     pz     px    dxy    dyz    dz2    dxz  x2-y2    tot
    1  0.002  0.000  0.000  0.001  0.000  0.000  0.000  0.000  0.000  0.002
    2  0.001  0.000  0.000  0.001  0.000  0.000  0.000  0.000  0.000  0.002
tot    0.003  0.000  0.000  0.002  0.000  0.000  0.000  0.000  0.000  0.005
 
band    14 # energy    1.63204386 # occ.  0.00000000
 
ion      s     py     pz     px    dxy    dyz    dz2    dxz  x2-y2    tot
    1  0.001  0.000  0.000  0.000  0.000  0.000  0.000  0.000  0.000  0.001
    2  0.001  0.000  0.000  0.000  0.000  0.000  0.000  0.000  0.000  0.001
tot    0.002  0.000  0.000  0.000  0.000  0.000  0.000  0.000  0.000  0.002
 
band    15 # energy    2.51445467 # occ.  0.00000000
 
ion      s     py     pz     px    dxy    dyz    dz2    dxz  x2-y2    tot
    1  0.000  0.000  0.000  0.000  0.000  0.000  0.000  0.000  0.000  0.000
    2  0.000  0.000  0.000  0.000  0.000  0.000  0.000  0.000  0.000  0.000
tot    0.000  0.000  0.000  0.000  0.000  0.000  0.000  0.000  0.000  0.000
 
band    16 # energy    2.53937053 # occ.  0.00000000
 
ion      s     py     pz     px    dxy    dyz    dz2    dxz  x2-y2    tot
    1  0.000  0.000  0.005  0.001  0.000  0.000  0.000  0.000  0.000  0.006
    2  0.000  0.000  0.005  0.001  0.000  0.000  0.000  0.000  0.000  0.006
tot    0.000  0.000  0.010  0.001  0.000  0.000  0.000  0.000  0.000  0.012
 
band    17 # energy    2.54945051 # occ.  0.00000000
 
ion      s     py     pz     px    dxy    dyz    dz2    dxz  x2-y2    tot
    1  0.000  0.004  0.000  0.000  0.000  0.000  0.000  0.000  0.000  0.005
    2  0.000  0.004  0.000  0.000  0.000  0.000  0.000  0.000  0.000  0.005
tot    0.000  0.009  0.000  0.001  0.000  0.000  0.000  0.000  0.000  0.010
 
band    18 # energy    2.58757291 # occ.  0.00000000
 
ion      s     py     pz     px    dxy    dyz    dz2    dxz  x2-y2    tot
    1  0.014  0.000  0.000  0.024  0.000  0.000  0.000  0.000  0.000  0.038
    2  0.014  0.000  0.001  0.023  0.000  0.000  0.000  0.000  0.000  0.038
tot    0.028  0.000  0.001  0.047  0.000  0.000  0.000  0.000  0.000  0.077
 
band    19 # energy    2.74864200 # occ.  0.00000000
 
ion      s     py     pz     px    dxy    dyz    dz2    dxz  x2-y2    tot
    1  0.001  0.000  0.000  0.001  0.000  0.000  0.000  0.000  0.000  0.002
    2  0.001  0.000  0.000  0.002  0.000  0.000  0.000  0.000  0.000  0.003
tot    0.002  0.000  0.000  0.003  0.000  0.000  0.000  0.000  0.000  0.005
 
band    20 # energy    2.90469502 # occ.  0.00000000
 
ion      s     py     pz     px    dxy    dyz    dz2    dxz  x2-y2    tot
    1  0.000  0.000  0.006  0.000  0.000  0.000  0.000  0.000  0.000  0.006
    2  0.000  0.000  0.005  0.000  0.000  0.000  0.000  0.000  0.000  0.005
tot    0.000  0.000  0.011  0.000  0.000  0.000  0.000  0.000  0.000  0.011
 
band    21 # energy    2.97588093 # occ.  0.00000000
 
ion      s     py     pz     px    dxy    dyz    dz2    dxz  x2-y2    tot
    1  0.000  0.000  0.001  0.000  0.000  0.000  0.000  0.000  0.000  0.002
    2  0.000  0.000  0.001  0.000  0.000  0.000  0.000  0.000  0.000  0.001
tot    0.000  0.000  0.002  0.000  0.000  0.000  0.000  0.000  0.000  0.003
 
band    22 # energy    2.99022031 # occ.  0.00000000
 
ion      s     py     pz     px    dxy    dyz    dz2    dxz  x2-y2    tot
    1  0.003  0.000  0.000  0.000  0.000  0.000  0.000  0.000  0.000  0.003
    2  0.003  0.000  0.000  0.000  0.000  0.000  0.000  0.000  0.000  0.004
tot    0.006  0.000  0.001  0.001  0.000  0.000  0.000  0.000  0.000  0.007
 
band    23 # energy    3.12879185 # occ.  0.00000000
 
ion      s     py     pz     px    dxy    dyz    dz2    dxz  x2-y2    tot
    1  0.000  0.007  0.000  0.000  0.000  0.000  0.000  0.000  0.000  0.007
    2  0.000  0.007  0.000  0.000  0.000  0.000  0.000  0.000  0.000  0.007
tot    0.000  0.014  0.000  0.000  0.000  0.000  0.000  0.000  0.000  0.014
 
band    24 # energy    3.19912630 # occ.  0.00000000
 
ion      s     py     pz     px    dxy    dyz    dz2    dxz  x2-y2    tot
    1  0.000  0.002  0.000  0.000  0.000  0.000  0.000  0.000  0.000  0.002
    2  0.000  0.002  0.000  0.000  0.000  0.000  0.000  0.000  0.000  0.002
tot    0.000  0.004  0.000  0.000  0.000  0.000  0.000  0.000  0.000  0.004
 
band    25 # energy    3.23950908 # occ.  0.00000000
 
ion      s     py     pz     px    dxy    dyz    dz2    dxz  x2-y2    tot
    1  0.002  0.000  0.000  0.003  0.000  0.000  0.000  0.000  0.000  0.004
    2  0.000  0.000  0.000  0.003  0.000  0.000  0.000  0.000  0.000  0.003
tot    0.002  0.000  0.000  0.005  0.000  0.000  0.000  0.000  0.000  0.008
 
band    26 # energy    3.24187273 # occ.  0.00000000
 
ion      s     py     pz     px    dxy    dyz    dz2    dxz  x2-y2    tot
    1  0.000  0.000  0.000  0.001  0.000  0.000  0.000  0.000  0.000  0.001
    2  0.002  0.000  0.000  0.000  0.000  0.000  0.000  0.000  0.000  0.002
tot    0.002  0.000  0.000  0.001  0.000  0.000  0.000  0.000  0.000  0.003
 
band    27 # energy    4.09585949 # occ.  0.00000000
 
ion      s     py     pz     px    dxy    dyz    dz2    dxz  x2-y2    tot
    1  0.015  0.000  0.000  0.071  0.000  0.000  0.000  0.000  0.000  0.086
    2  0.015  0.000  0.000  0.071  0.000  0.000  0.000  0.000  0.000  0.086
tot    0.030  0.000  0.001  0.142  0.000  0.000  0.000  0.000  0.000  0.173
 
band    28 # energy    4.35205152 # occ.  0.00000000
 
ion      s     py     pz     px    dxy    dyz    dz2    dxz  x2-y2    tot
    1  0.000  0.000  0.000  0.000  0.000  0.000  0.000  0.000  0.000  0.000
    2  0.000  0.000  0.000  0.000  0.000  0.000  0.000  0.000  0.000  0.000
tot    0.000  0.000  0.000  0.000  0.000  0.000  0.000  0.000  0.000  0.000
 
