<?xml version="1.0" encoding="ISO-8859-1"?>
<modeling>
 <generator>
  <i name="program" type="string">vasp </i>
  <i name="version" type="string">5.4.4.18Apr17-6-g9f103f2a35  </i>
  <i name="subversion" type="string">(build Mar 12 2019 21:14:03) complex            parallel </i>
  <i name="platform" type="string">LinuxIFC </i>
  <i name="date" type="string">2024 06 27 </i>
  <i name="time" type="string">18:45:32 </i>
 </generator>
 <incar>
  <i type="string" name="PREC">normal</i>
  <i type="int" name="IALGO">    38</i>
  <i type="string" name="ALGO"> Fast</i>
  <i type="int" name="ISPIN">     2</i>
  <i type="int" name="NELM">   200</i>
  <i type="int" name="IBRION">     5</i>
  <i name="EDIFF">      0.00000500</i>
  <i name="EDIFFG">     -0.01000000</i>
  <i type="int" name="NSW">     1</i>
  <i type="int" name="ISIF">     2</i>
  <i name="ENCUT">    450.00000000</i>
  <i name="POTIM">      0.02000000</i>
  <v name="MAGMOM">      2.00000000      2.00000000</v>
  <i type="string" name="LREAL"> Auto</i>
  <i type="int" name="ISMEAR">     0</i>
  <i name="SIGMA">      0.01000000</i>
  <i type="logical" name="LWAVE"> F  </i>
  <i type="logical" name="LCHARG"> F  </i>
  <i type="int" name="LORBIT">    11</i>
  <v type="int" name="KPOINT_BSE">    -1     0     0     0</v>
  <i type="int" name="NELM">   200</i>
 </incar>
 <structure name="primitive_cell" >
  <crystal>
   <varray name="basis" >
    <v>       9.00000000       0.00000000       0.00000000 </v>
    <v>       0.00000000      10.00000000       0.00000000 </v>
    <v>       0.00000000       0.00000000      11.00000000 </v>
   </varray>
   <i name="volume">    990.00000000 </i>
   <varray name="rec_basis" >
    <v>       0.11111111       0.00000000       0.00000000 </v>
    <v>       0.00000000       0.10000000       0.00000000 </v>
    <v>       0.00000000       0.00000000       0.09090909 </v>
   </varray>
  </crystal>
  <varray name="positions" >
   <v>       0.44135031      -0.49441523      -0.49750130 </v>
   <v>      -0.42184031      -0.49662477       0.49632130 </v>
  </varray>
 </structure>
 <varray name="primitive_index" >
  <v type="int" >        1 </v>
  <v type="int" >        2 </v>
 </varray>
 <kpoints>
  <generation param="Gamma">
   <v type="int" name="divisions">       1        1        1 </v>
   <v name="usershift">      0.00000000       0.00000000       0.00000000 </v>
   <v name="genvec1">      1.00000000       0.00000000       0.00000000 </v>
   <v name="genvec2">      0.00000000       1.00000000       0.00000000 </v>
   <v name="genvec3">      0.00000000       0.00000000       1.00000000 </v>
   <v name="shift">      0.00000000       0.00000000       0.00000000 </v>
  </generation>
  <varray name="kpointlist" >
   <v>       0.00000000       0.00000000       0.00000000 </v>
  </varray>
  <varray name="weights" >
   <v>       1.00000000 </v>
  </varray>
 </kpoints>
 <parameters>
  <separator name="general" >
   <i type="string" name="SYSTEM">unknown system</i>
   <i type="logical" name="LCOMPAT"> F  </i>
  </separator>
  <separator name="electronic" >
   <i type="string" name="PREC">normal</i>
   <i name="ENMAX">    450.00000000</i>
   <i name="ENAUG">    605.39200000</i>
   <i name="EDIFF">      0.00000500</i>
   <i type="int" name="IALGO">    68</i>
   <i type="int" name="IWAVPR">    11</i>
   <i type="int" name="NBANDS">    28</i>
   <i name="NELECT">     12.00000000</i>
   <i type="int" name="TURBO">     0</i>
   <i type="int" name="IRESTART">     0</i>
   <i type="int" name="NREBOOT">     0</i>
   <i type="int" name="NMIN">     0</i>
   <i name="EREF">      0.00000000</i>
   <separator name="electronic smearing" >
    <i type="int" name="ISMEAR">     0</i>
    <i name="SIGMA">      0.01000000</i>
    <i name="KSPACING">      0.50000000</i>
    <i type="logical" name="KGAMMA"> T  </i>
   </separator>
   <separator name="electronic projectors" >
    <i type="logical" name="LREAL"> T  </i>
    <v name="ROPT">     -0.00050000</v>
    <i type="int" name="LMAXPAW">  -100</i>
    <i type="int" name="LMAXMIX">     2</i>
    <i type="logical" name="NLSPLINE"> F  </i>
   </separator>
   <separator name="electronic startup" >
    <i type="int" name="ISTART">     0</i>
    <i type="int" name="ICHARG">     2</i>
    <i type="int" name="INIWAV">     1</i>
   </separator>
   <separator name="electronic spin" >
    <i type="int" name="ISPIN">     2</i>
    <i type="logical" name="LNONCOLLINEAR"> F  </i>
    <v name="MAGMOM">      2.00000000      2.00000000</v>
    <i name="NUPDOWN">     -1.00000000</i>
    <i type="logical" name="LSORBIT"> F  </i>
    <v name="SAXIS">      0.00000000      0.00000000      1.00000000</v>
    <i type="logical" name="LSPIRAL"> F  </i>
    <v name="QSPIRAL">      0.00000000      0.00000000      0.00000000</v>
    <i type="logical" name="LZEROZ"> F  </i>
   </separator>
   <separator name="electronic exchange-correlation" >
    <i type="logical" name="LASPH"> F  </i>
    <i type="logical" name="LMETAGGA"> F  </i>
   </separator>
   <separator name="electronic convergence" >
    <i type="int" name="NELM">   200</i>
    <i type="int" name="NELMDL">    -5</i>
    <i type="int" name="NELMIN">     2</i>
    <i name="ENINI">    450.00000000</i>
    <separator name="electronic convergence detail" >
     <i type="logical" name="LDIAG"> T  </i>
     <i type="logical" name="LSUBROT"> F  </i>
     <i name="WEIMIN">      0.00100000</i>
     <i name="EBREAK">      0.00000004</i>
     <i name="DEPER">      0.30000000</i>
     <i type="int" name="NRMM">     4</i>
     <i name="TIME">      0.40000000</i>
    </separator>
   </separator>
   <separator name="electronic mixer" >
    <i name="AMIX">      0.40000000</i>
    <i name="BMIX">      1.00000000</i>
    <i name="AMIN">      0.10000000</i>
    <i name="AMIX_MAG">      1.60000000</i>
    <i name="BMIX_MAG">      1.00000000</i>
    <separator name="electronic mixer details" >
     <i type="int" name="IMIX">     4</i>
     <i type="logical" name="MIXFIRST"> F  </i>
     <i type="int" name="MAXMIX">   -45</i>
     <i name="WC">    100.00000000</i>
     <i type="int" name="INIMIX">     1</i>
     <i type="int" name="MIXPRE">     1</i>
     <i type="int" name="MREMOVE">     5</i>
    </separator>
   </separator>
   <separator name="electronic dipolcorrection" >
    <i type="logical" name="LDIPOL"> F  </i>
    <i type="logical" name="LMONO"> F  </i>
    <i type="int" name="IDIPOL">     0</i>
    <i name="EPSILON">      1.00000000</i>
    <v name="DIPOL">   -100.00000000   -100.00000000   -100.00000000</v>
    <i name="EFIELD">      0.00000000</i>
   </separator>
  </separator>
  <separator name="grids" >
   <i type="int" name="NGX">    48</i>
   <i type="int" name="NGY">    54</i>
   <i type="int" name="NGZ">    60</i>
   <i type="int" name="NGXF">    96</i>
   <i type="int" name="NGYF">   108</i>
   <i type="int" name="NGZF">   120</i>
   <i type="logical" name="ADDGRID"> F  </i>
  </separator>
  <separator name="ionic" >
   <i type="int" name="NSW">    61</i>
   <i type="int" name="IBRION">     5</i>
   <i type="int" name="MDALGO">     0</i>
   <i type="int" name="ISIF">     2</i>
   <i name="PSTRESS">      0.00000000</i>
   <i name="EDIFFG">     -0.01000000</i>
   <i type="int" name="NFREE">     2</i>
   <i name="POTIM">      0.02000000</i>
   <i name="SMASS">     -3.00000000</i>
   <i name="SCALEE">      1.00000000</i>
  </separator>
  <separator name="ionic md" >
   <i name="TEBEG">      0.00010000</i>
   <i name="TEEND">      0.00010000</i>
   <i type="int" name="NBLOCK">     1</i>
   <i type="int" name="KBLOCK">    61</i>
   <i type="int" name="NPACO">   256</i>
   <i name="APACO">     16.00000000</i>
  </separator>
  <separator name="symmetry" >
   <i type="int" name="ISYM">     2</i>
   <i name="SYMPREC">      0.00001000</i>
  </separator>
  <separator name="dos" >
   <i type="int" name="LORBIT">    11</i>
   <v name="RWIGS">     -1.00000000</v>
   <i type="int" name="NEDOS">   301</i>
   <i name="EMIN">     10.00000000</i>
   <i name="EMAX">    -10.00000000</i>
   <i name="EFERMI">      0.00000000</i>
  </separator>
  <separator name="writing" >
   <i type="int" name="NWRITE">     2</i>
   <i type="logical" name="LWAVE"> F  </i>
   <i type="logical" name="LDOWNSAMPLE"> F  </i>
   <i type="logical" name="LCHARG"> F  </i>
   <i type="logical" name="LPARD"> F  </i>
   <i type="logical" name="LVTOT"> F  </i>
   <i type="logical" name="LVHAR"> F  </i>
   <i type="logical" name="LELF"> F  </i>
   <i type="logical" name="LOPTICS"> F  </i>
   <v name="STM">      0.00000000      0.00000000      0.00000000      0.00000000      0.00000000      0.00000000      0.00000000</v>
  </separator>
  <separator name="performance" >
   <i type="int" name="NPAR">    28</i>
   <i type="int" name="NSIM">     4</i>
   <i type="int" name="NBLK">    -1</i>
   <i type="logical" name="LPLANE"> T  </i>
   <i type="logical" name="LSCALAPACK"> T  </i>
   <i type="logical" name="LSCAAWARE"> F  </i>
   <i type="logical" name="LSCALU"> F  </i>
   <i type="logical" name="LASYNC"> F  </i>
   <i type="logical" name="LORBITALREAL"> F  </i>
  </separator>
  <separator name="miscellaneous" >
   <i type="int" name="IDIOT">     3</i>
   <i type="int" name="ISPECIAL">     0</i>
   <i type="logical" name="LMUSIC"> F  </i>
   <v name="POMASS">     16.00000000</v>
   <v name="DARWINR">      0.00000000</v>
   <v name="DARWINV">      1.00000000</v>
   <i type="logical" name="LCORR"> T  </i>
  </separator>
  <i type="logical" name="GGA_COMPAT"> T  </i>
  <i type="logical" name="LBERRY"> F  </i>
  <i type="int" name="ICORELEVEL">     0</i>
  <i type="logical" name="LDAU"> F  </i>
  <i type="int" name="I_CONSTRAINED_M">     0</i>
  <separator name="electronic exchange-correlation" >
   <i type="string" name="GGA">--</i>
   <i type="int" name="VOSKOWN">     0</i>
   <i type="logical" name="LHFCALC"> F  </i>
   <i type="string" name="PRECFOCK"></i>
   <i type="logical" name="LSYMGRAD"> F  </i>
   <i type="logical" name="LHFONE"> F  </i>
   <i type="logical" name="LRHFCALC"> F  </i>
   <i type="logical" name="LTHOMAS"> F  </i>
   <i type="logical" name="LMODELHF"> F  </i>
   <i name="ENCUT4O">     -1.00000000</i>
   <i type="int" name="EXXOEP">     0</i>
   <i type="int" name="FOURORBIT">     0</i>
   <i name="AEXX">      0.00000000</i>
   <i name="HFALPHA">      0.00000000</i>
   <i name="MCALPHA">      0.00000000</i>
   <i name="ALDAX">      1.00000000</i>
   <i name="AGGAX">      1.00000000</i>
   <i name="ALDAC">      1.00000000</i>
   <i name="AGGAC">      1.00000000</i>
   <i type="int" name="NKREDX">     1</i>
   <i type="int" name="NKREDY">     1</i>
   <i type="int" name="NKREDZ">     1</i>
   <i type="logical" name="SHIFTRED"> F  </i>
   <i type="logical" name="ODDONLY"> F  </i>
   <i type="logical" name="EVENONLY"> F  </i>
   <i type="int" name="LMAXFOCK">     0</i>
   <i type="int" name="NMAXFOCKAE">     0</i>
   <i type="logical" name="LFOCKAEDFT"> F  </i>
   <i name="HFSCREEN">      0.00000000</i>
   <i name="HFSCREENC">      0.00000000</i>
   <i type="int" name="NBANDSGWLOW">     0</i>
  </separator>
  <separator name="vdW DFT" >
   <i type="logical" name="LUSE_VDW"> F  </i>
   <i name="Zab_VDW">     -0.84910000</i>
   <i name="PARAM1">      0.12340000</i>
   <i name="PARAM2">      1.00000000</i>
   <i name="PARAM3">      0.00000000</i>
  </separator>
  <separator name="model GW" >
   <i type="int" name="MODEL_GW">     0</i>
   <i name="MODEL_EPS0">    297.00000000</i>
   <i name="MODEL_ALPHA">      1.00000000</i>
  </separator>
  <separator name="linear response parameters" >
   <i type="logical" name="LEPSILON"> F  </i>
   <i type="logical" name="LRPA"> F  </i>
   <i type="logical" name="LNABLA"> F  </i>
   <i type="logical" name="LVEL"> F  </i>
   <i type="int" name="KINTER">     0</i>
   <i name="CSHIFT">      0.10000000</i>
   <i name="OMEGAMAX">     -1.00000000</i>
   <i name="DEG_THRESHOLD">      0.00200000</i>
   <i name="RTIME">     -0.10000000</i>
   <i name="WPLASMAI">      0.00000000</i>
   <v name="DFIELD">      0.00000000      0.00000000      0.00000000</v>
   <v name="WPLASMA">      0.00000000      0.00000000      0.00000000      0.00000000      0.00000000      0.00000000      0.00000000      0.00000000      0.00000000</v>
  </separator>
  <separator name="orbital magnetization" >
   <i type="logical" name="NUCIND"> F  </i>
   <v name="MAGPOS">      0.00000000      0.00000000      0.00000000</v>
   <i type="logical" name="LNICSALL"> T  </i>
   <i type="logical" name="ORBITALMAG"> F  </i>
   <i type="logical" name="LMAGBLOCH"> F  </i>
   <i type="logical" name="LCHIMAG"> F  </i>
   <i type="logical" name="LGAUGE"> T  </i>
   <i type="int" name="MAGATOM">     0</i>
   <v name="MAGDIPOL">      0.00000000      0.00000000      0.00000000</v>
   <v name="AVECCONST">      0.00000000      0.00000000      0.00000000</v>
  </separator>
  <separator name="response functions" >
   <i type="logical" name="LADDER"> F  </i>
   <i type="logical" name="LRPAFORCE"> F  </i>
   <i type="logical" name="LFXC"> F  </i>
   <i type="logical" name="LHARTREE"> T  </i>
   <i type="int" name="IBSE">     0</i>
   <v type="int" name="KPOINT">    -1     0     0     0</v>
   <i type="logical" name="LTCTE"> F  </i>
   <i type="logical" name="LTETE"> F  </i>
   <i type="logical" name="LTRIPLET"> F  </i>
   <i type="logical" name="LFXCEPS"> F  </i>
   <i type="logical" name="LFXHEG"> F  </i>
   <i type="int" name="NATURALO">     2</i>
   <i type="logical" name="L2ORDER"> F  </i>
   <i type="logical" name="LMP2LT"> F  </i>
   <i type="logical" name="LUSEW"> F  </i>
   <i name="ENCUTGW">     -2.00000000</i>
   <i name="ENCUTGWSOFT">     -2.00000000</i>
   <i name="ENCUTLF">     -1.00000000</i>
   <i type="int" name="LMAXMP2">    -1</i>
   <i name="SCISSOR">      0.00000000</i>
   <i type="int" name="NOMEGA">     0</i>
   <i type="int" name="NOMEGAR">     0</i>
   <i type="int" name="NBANDSGW">    -1</i>
   <i type="int" name="NBANDSO">    -1</i>
   <i type="int" name="NBANDSV">    -1</i>
   <i type="int" name="NELM">   200</i>
   <i type="int" name="NELMHF">     1</i>
   <i type="int" name="DIM">     3</i>
   <i type="int" name="ANTIRES">     0</i>
   <i name="OMEGAMAX">    -30.00000000</i>
   <i name="OMEGAMIN">    -30.00000000</i>
   <i name="OMEGATL">   -200.00000000</i>
   <i type="int" name="OMEGAGRID">   140</i>
   <i name="CSHIFT">     -0.10000000</i>
   <i type="logical" name="SELFENERGY"> F  </i>
   <i type="logical" name="LSPECTRAL"> F  </i>
   <i type="logical" name="LSPECTRALGW"> F  </i>
   <i type="logical" name="LSINGLES"> F  </i>
   <i type="logical" name="LFERMIGW"> F  </i>
   <i type="logical" name="ODDONLYGW"> F  </i>
   <i type="logical" name="EVENONLYGW"> F  </i>
   <i type="int" name="NKREDLFX">     1</i>
   <i type="int" name="NKREDLFY">     1</i>
   <i type="int" name="NKREDLFZ">     1</i>
   <i type="int" name="MAXMEM">  2800</i>
   <i type="int" name="TELESCOPE">     0</i>
   <i type="int" name="TAUPAR">     1</i>
   <i type="int" name="OMEGAPAR">    -1</i>
   <i name="LAMBDA">      1.00000000</i>
  </separator>
  <separator name="External order field" >
   <i name="OFIELD_KAPPA">      0.00000000</i>
   <v name="OFIELD_K">      0.00000000      0.00000000      0.00000000</v>
   <i name="OFIELD_Q6_NEAR">      0.00000000</i>
   <i name="OFIELD_Q6_FAR">      0.00000000</i>
   <i name="OFIELD_A">      0.00000000</i>
  </separator>
 </parameters>
 <atominfo>
  <atoms>       2 </atoms>
  <types>       1 </types>
  <array name="atoms" >
   <dimension dim="1">ion</dimension>
   <field type="string">element</field>
   <field type="int">atomtype</field>
   <set>
    <rc><c>O </c><c>   1</c></rc>
    <rc><c>O </c><c>   1</c></rc>
   </set>
  </array>
  <array name="atomtypes" >
   <dimension dim="1">type</dimension>
   <field type="int">atomspertype</field>
   <field type="string">element</field>
   <field>mass</field>
   <field>valence</field>
   <field type="string">pseudopotential</field>
   <set>
    <rc><c>   2</c><c>O </c><c>     16.00000000</c><c>      6.00000000</c><c> PAW_PBE O 08Apr2002                    </c></rc>
   </set>
  </array>
 </atominfo>
 <structure name="initialpos" >
  <crystal>
   <varray name="basis" >
    <v>       9.00000000       0.00000000       0.00000000 </v>
    <v>       0.00000000      10.00000000       0.00000000 </v>
    <v>       0.00000000       0.00000000      11.00000000 </v>
   </varray>
   <i name="volume">    990.00000000 </i>
   <varray name="rec_basis" >
    <v>       0.11111111       0.00000000       0.00000000 </v>
    <v>       0.00000000       0.10000000       0.00000000 </v>
    <v>       0.00000000       0.00000000       0.09090909 </v>
   </varray>
  </crystal>
  <varray name="positions" >
   <v>       0.44135031       0.50558477       0.50249870 </v>
   <v>       0.57815969       0.50337523       0.49632130 </v>
  </varray>
  <varray name="selective"  type="logical" >
   <v type="logical" >  T  T  T </v>
   <v type="logical" >  T  T  T </v>
  </varray>
  <nose>
   <v>      -3.00000000       0.00000000       0.00010000       0.00010000 </v>
  </nose>
 </structure>
 <calculation>
  <scstep>
   <time name="dav">    0.12    0.12</time>
   <time name="total">    0.21    0.21</time>
   <energy>
    <i name="alphaZ">      0.56134412 </i>
    <i name="ewald">    130.73572915 </i>
    <i name="hartreedc">   -859.09345099 </i>
    <i name="XCdc">     55.66203402 </i>
    <i name="pawpsdc">    490.91431918 </i>
    <i name="pawaedc">   -494.57108051 </i>
    <i name="eentropy">      0.00000000 </i>
    <i name="bandstr">   -106.91048302 </i>
    <i name="atom">    864.67971496 </i>
    <i name="e_fr_energy">     81.97812691 </i>
    <i name="e_wo_entrp">     81.97812691 </i>
    <i name="e_0_energy">     81.97812691 </i>
   </energy>
  </scstep>
  <scstep>
   <time name="dav">    0.18    0.19</time>
   <time name="total">    0.18    0.19</time>
   <energy>
    <i name="e_fr_energy">     -8.07893632 </i>
    <i name="e_wo_entrp">     -8.07893632 </i>
    <i name="e_0_energy">     -8.07893632 </i>
   </energy>
  </scstep>
  <scstep>
   <time name="dav">    0.09    0.09</time>
   <time name="total">    0.09    0.09</time>
   <energy>
    <i name="e_fr_energy">     -9.03663027 </i>
    <i name="e_wo_entrp">     -9.03663027 </i>
    <i name="e_0_energy">     -9.03663027 </i>
   </energy>
  </scstep>
  <scstep>
   <time name="dav">    0.14    0.14</time>
   <time name="total">    0.14    0.14</time>
   <energy>
    <i name="e_fr_energy">     -9.04275914 </i>
    <i name="e_wo_entrp">     -9.04275914 </i>
    <i name="e_0_energy">     -9.04275914 </i>
   </energy>
  </scstep>
  <scstep>
   <time name="dav">    0.14    0.14</time>
   <time name="total">    0.18    0.18</time>
   <energy>
    <i name="e_fr_energy">     -9.04278564 </i>
    <i name="e_wo_entrp">     -9.04278564 </i>
    <i name="e_0_energy">     -9.04278564 </i>
   </energy>
  </scstep>
  <scstep>
   <time name="diag">    0.02    0.03</time>
   <time name="diis">    0.08    0.08</time>
   <time name="orth">    0.00    0.00</time>
   <time name="total">    0.22    0.22</time>
   <energy>
    <i name="e_fr_energy">     -4.09868302 </i>
    <i name="e_wo_entrp">     -4.09868302 </i>
    <i name="e_0_energy">     -4.09868302 </i>
   </energy>
  </scstep>
  <scstep>
   <time name="diag">    0.02    0.02</time>
   <time name="diis">    0.08    0.08</time>
   <time name="orth">    0.00    0.00</time>
   <time name="total">    0.22    0.23</time>
   <energy>
    <i name="e_fr_energy">     -8.02809765 </i>
    <i name="e_wo_entrp">     -8.02809765 </i>
    <i name="e_0_energy">     -8.02809765 </i>
   </energy>
  </scstep>
  <scstep>
   <time name="diag">    0.02    0.02</time>
   <time name="diis">    0.08    0.08</time>
   <time name="orth">    0.00    0.00</time>
   <time name="total">    0.22    0.22</time>
   <energy>
    <i name="e_fr_energy">     -9.38539119 </i>
    <i name="e_wo_entrp">     -9.38539119 </i>
    <i name="e_0_energy">     -9.38539119 </i>
   </energy>
  </scstep>
  <scstep>
   <time name="diag">    0.02    0.02</time>
   <time name="diis">    0.08    0.08</time>
   <time name="orth">    0.00    0.00</time>
   <time name="total">    0.22    0.22</time>
   <energy>
    <i name="e_fr_energy">     -9.70743417 </i>
    <i name="e_wo_entrp">     -9.70743417 </i>
    <i name="e_0_energy">     -9.70743417 </i>
   </energy>
  </scstep>
  <scstep>
   <time name="diag">    0.02    0.02</time>
   <time name="diis">    0.08    0.08</time>
   <time name="orth">    0.00    0.00</time>
   <time name="total">    0.22    0.22</time>
   <energy>
    <i name="e_fr_energy">     -9.82194318 </i>
    <i name="e_wo_entrp">     -9.82194318 </i>
    <i name="e_0_energy">     -9.82194318 </i>
   </energy>
  </scstep>
  <scstep>
   <time name="diag">    0.02    0.02</time>
   <time name="diis">    0.08    0.08</time>
   <time name="orth">    0.00    0.00</time>
   <time name="total">    0.22    0.22</time>
   <energy>
    <i name="e_fr_energy">     -9.84022598 </i>
    <i name="e_wo_entrp">     -9.84022598 </i>
    <i name="e_0_energy">     -9.84022598 </i>
   </energy>
  </scstep>
  <scstep>
   <time name="diag">    0.02    0.02</time>
   <time name="diis">    0.08    0.08</time>
   <time name="orth">    0.00    0.00</time>
   <time name="total">    0.21    0.22</time>
   <energy>
    <i name="e_fr_energy">     -9.85412130 </i>
    <i name="e_wo_entrp">     -9.85412130 </i>
    <i name="e_0_energy">     -9.85412130 </i>
   </energy>
  </scstep>
  <scstep>
   <time name="diag">    0.02    0.02</time>
   <time name="diis">    0.08    0.08</time>
   <time name="orth">    0.00    0.00</time>
   <time name="total">    0.22    0.22</time>
   <energy>
    <i name="e_fr_energy">     -9.85588473 </i>
    <i name="e_wo_entrp">     -9.85588473 </i>
    <i name="e_0_energy">     -9.85588473 </i>
   </energy>
  </scstep>
  <scstep>
   <time name="diag">    0.02    0.02</time>
   <time name="diis">    0.08    0.08</time>
   <time name="orth">    0.00    0.00</time>
   <time name="total">    0.22    0.22</time>
   <energy>
    <i name="e_fr_energy">     -9.85606207 </i>
    <i name="e_wo_entrp">     -9.85606207 </i>
    <i name="e_0_energy">     -9.85606207 </i>
   </energy>
  </scstep>
  <scstep>
   <time name="diag">    0.02    0.02</time>
   <time name="diis">    0.08    0.08</time>
   <time name="orth">    0.00    0.00</time>
   <time name="total">    0.22    0.22</time>
   <energy>
    <i name="e_fr_energy">     -9.85622400 </i>
    <i name="e_wo_entrp">     -9.85622400 </i>
    <i name="e_0_energy">     -9.85622400 </i>
   </energy>
  </scstep>
  <scstep>
   <time name="diag">    0.02    0.02</time>
   <time name="diis">    0.08    0.08</time>
   <time name="orth">    0.00    0.00</time>
   <time name="total">    0.22    0.22</time>
   <energy>
    <i name="e_fr_energy">     -9.85628971 </i>
    <i name="e_wo_entrp">     -9.85628971 </i>
    <i name="e_0_energy">     -9.85628971 </i>
   </energy>
  </scstep>
  <scstep>
   <time name="diag">    0.02    0.02</time>
   <time name="diis">    0.08    0.08</time>
   <time name="orth">    0.00    0.00</time>
   <time name="total">    0.22    0.23</time>
   <energy>
    <i name="e_fr_energy">     -9.85636153 </i>
    <i name="e_wo_entrp">     -9.85636153 </i>
    <i name="e_0_energy">     -9.85636153 </i>
   </energy>
  </scstep>
  <scstep>
   <time name="diag">    0.02    0.02</time>
   <time name="diis">    0.08    0.08</time>
   <time name="orth">    0.00    0.00</time>
   <time name="total">    0.22    0.22</time>
   <energy>
    <i name="e_fr_energy">     -9.85639477 </i>
    <i name="e_wo_entrp">     -9.85639477 </i>
    <i name="e_0_energy">     -9.85639477 </i>
   </energy>
  </scstep>
  <scstep>
   <time name="diag">    0.02    0.02</time>
   <time name="diis">    0.08    0.08</time>
   <time name="orth">    0.00    0.00</time>
   <time name="total">    0.22    0.22</time>
   <energy>
    <i name="e_fr_energy">     -9.85642539 </i>
    <i name="e_wo_entrp">     -9.85642539 </i>
    <i name="e_0_energy">     -9.85642539 </i>
   </energy>
  </scstep>
  <scstep>
   <time name="diag">    0.02    0.02</time>
   <time name="diis">    0.08    0.08</time>
   <time name="orth">    0.00    0.00</time>
   <time name="total">    0.17    0.17</time>
   <energy>
    <i name="alphaZ">      0.56134412 </i>
    <i name="ewald">    130.73572915 </i>
    <i name="hartreedc">   -866.02286430 </i>
    <i name="XCdc">     55.45104903 </i>
    <i name="pawpsdc">    565.60249370 </i>
    <i name="pawaedc">   -569.26695154 </i>
    <i name="eentropy">      0.00000000 </i>
    <i name="bandstr">   -191.59694439 </i>
    <i name="atom">    864.67971496 </i>
    <i name="e_fr_energy">     -9.85642927 </i>
    <i name="e_wo_entrp">     -9.85642927 </i>
    <i name="e_0_energy">     -9.85642927 </i>
   </energy>
  </scstep>
  <structure>
   <crystal>
    <varray name="basis" >
     <v>       9.00000000       0.00000000       0.00000000 </v>
     <v>       0.00000000      10.00000000       0.00000000 </v>
     <v>       0.00000000       0.00000000      11.00000000 </v>
    </varray>
    <i name="volume">    990.00000000 </i>
    <varray name="rec_basis" >
     <v>       0.11111111       0.00000000       0.00000000 </v>
     <v>       0.00000000       0.10000000       0.00000000 </v>
     <v>       0.00000000       0.00000000       0.09090909 </v>
    </varray>
   </crystal>
   <varray name="positions" >
    <v>       0.44135031       0.50558477       0.50249870 </v>
    <v>       0.57815969       0.50337523       0.49632130 </v>
   </varray>
  </structure>
  <varray name="forces" >
   <v>       0.00017223       0.00078271       0.00047077 </v>
   <v>      -0.00017223      -0.00078271      -0.00047077 </v>
  </varray>
  <varray name="stress" >
   <v>      -0.51927854      -0.00498530      -0.00748168 </v>
   <v>      -0.00498530      -0.72269717      -0.00175071 </v>
   <v>      -0.00748168      -0.00175071      -0.74979025 </v>
  </varray>
  <energy>
   <i name="e_fr_energy">     -9.85642927 </i>
   <i name="e_wo_entrp">     -9.85642927 </i>
   <i name="e_0_energy">      0.00000000 </i>
  </energy>
  <kpoints>
   <generation param="Gamma">
    <v type="int" name="divisions">       1        1        1 </v>
    <v name="usershift">      0.00000000       0.00000000       0.00000000 </v>
    <v name="genvec1">      1.00000000       0.00000000       0.00000000 </v>
    <v name="genvec2">      0.00000000       1.00000000       0.00000000 </v>
    <v name="genvec3">      0.00000000       0.00000000       1.00000000 </v>
    <v name="shift">      0.00000000       0.00000000       0.00000000 </v>
   </generation>
   <varray name="kpointlist" >
    <v>       0.00000000       0.00000000       0.00000000 </v>
   </varray>
   <varray name="weights" >
    <v>       1.00000000 </v>
   </varray>
  </kpoints>
  <time name="totalsc">    4.28    4.32</time>
 </calculation>
 <calculation>
  <scstep>
   <time name="dav">    0.11    0.11</time>
   <time name="total">    0.22    0.22</time>
   <energy>
    <i name="alphaZ">      0.56134412 </i>
    <i name="ewald">    137.56876607 </i>
    <i name="hartreedc">   -870.99570513 </i>
    <i name="XCdc">     55.54180749 </i>
    <i name="pawpsdc">    565.60354188 </i>
    <i name="pawaedc">   -569.26800944 </i>
    <i name="eentropy">      0.00000000 </i>
    <i name="bandstr">   -193.53141206 </i>
    <i name="atom">    864.67971496 </i>
    <i name="e_fr_energy">     -9.83995211 </i>
    <i name="e_wo_entrp">     -9.83995211 </i>
    <i name="e_0_energy">     -9.83995211 </i>
   </energy>
  </scstep>
  <scstep>
   <time name="diag">    0.02    0.02</time>
   <time name="diis">    0.08    0.08</time>
   <time name="orth">    0.00    0.00</time>
   <time name="total">    0.22    0.22</time>
   <energy>
    <i name="e_fr_energy">     -9.83696285 </i>
    <i name="e_wo_entrp">     -9.83696285 </i>
    <i name="e_0_energy">     -9.83696285 </i>
   </energy>
  </scstep>
  <scstep>
   <time name="diag">    0.02    0.02</time>
   <time name="diis">    0.08    0.08</time>
   <time name="orth">    0.00    0.00</time>
   <time name="total">    0.22    0.22</time>
   <energy>
    <i name="e_fr_energy">     -9.84035244 </i>
    <i name="e_wo_entrp">     -9.84035244 </i>
    <i name="e_0_energy">     -9.84035244 </i>
   </energy>
  </scstep>
  <scstep>
   <time name="diag">    0.02    0.02</time>
   <time name="diis">    0.08    0.08</time>
   <time name="orth">    0.00    0.00</time>
   <time name="total">    0.22    0.22</time>
   <energy>
    <i name="e_fr_energy">     -9.84100243 </i>
    <i name="e_wo_entrp">     -9.84100243 </i>
    <i name="e_0_energy">     -9.84100243 </i>
   </energy>
  </scstep>
  <scstep>
   <time name="diag">    0.02    0.02</time>
   <time name="diis">    0.08    0.08</time>
   <time name="orth">    0.00    0.00</time>
   <time name="total">    0.22    0.22</time>
   <energy>
    <i name="e_fr_energy">     -9.84119156 </i>
    <i name="e_wo_entrp">     -9.84119156 </i>
    <i name="e_0_energy">     -9.84119156 </i>
   </energy>
  </scstep>
  <scstep>
   <time name="diag">    0.02    0.02</time>
   <time name="diis">    0.08    0.08</time>
   <time name="orth">    0.00    0.00</time>
   <time name="total">    0.22    0.22</time>
   <energy>
    <i name="e_fr_energy">     -9.84121351 </i>
    <i name="e_wo_entrp">     -9.84121351 </i>
    <i name="e_0_energy">     -9.84121351 </i>
   </energy>
  </scstep>
  <scstep>
   <time name="diag">    0.02    0.02</time>
   <time name="diis">    0.08    0.08</time>
   <time name="orth">    0.00    0.00</time>
   <time name="total">    0.22    0.22</time>
   <energy>
    <i name="e_fr_energy">     -9.84124922 </i>
    <i name="e_wo_entrp">     -9.84124922 </i>
    <i name="e_0_energy">     -9.84124922 </i>
   </energy>
  </scstep>
  <scstep>
   <time name="diag">    0.02    0.02</time>
   <time name="diis">    0.08    0.08</time>
   <time name="orth">    0.00    0.00</time>
   <time name="total">    0.22    0.22</time>
   <energy>
    <i name="e_fr_energy">     -9.84126186 </i>
    <i name="e_wo_entrp">     -9.84126186 </i>
    <i name="e_0_energy">     -9.84126186 </i>
   </energy>
  </scstep>
  <scstep>
   <time name="diag">    0.02    0.02</time>
   <time name="diis">    0.08    0.08</time>
   <time name="orth">    0.00    0.00</time>
   <time name="total">    0.22    0.22</time>
   <energy>
    <i name="e_fr_energy">     -9.84127205 </i>
    <i name="e_wo_entrp">     -9.84127205 </i>
    <i name="e_0_energy">     -9.84127205 </i>
   </energy>
  </scstep>
  <scstep>
   <time name="diag">    0.02    0.02</time>
   <time name="diis">    0.08    0.08</time>
   <time name="orth">    0.00    0.00</time>
   <time name="total">    0.22    0.22</time>
   <energy>
    <i name="e_fr_energy">     -9.84127973 </i>
    <i name="e_wo_entrp">     -9.84127973 </i>
    <i name="e_0_energy">     -9.84127973 </i>
   </energy>
  </scstep>
  <scstep>
   <time name="diag">    0.02    0.02</time>
   <time name="diis">    0.08    0.08</time>
   <time name="orth">    0.00    0.00</time>
   <time name="total">    0.22    0.22</time>
   <energy>
    <i name="e_fr_energy">     -9.84128797 </i>
    <i name="e_wo_entrp">     -9.84128797 </i>
    <i name="e_0_energy">     -9.84128797 </i>
   </energy>
  </scstep>
  <scstep>
   <time name="diag">    0.02    0.02</time>
   <time name="diis">    0.08    0.08</time>
   <time name="orth">    0.00    0.00</time>
   <time name="total">    0.17    0.17</time>
   <energy>
    <i name="alphaZ">      0.56134412 </i>
    <i name="ewald">    137.56876607 </i>
    <i name="hartreedc">   -871.95595298 </i>
    <i name="XCdc">     55.60160578 </i>
    <i name="pawpsdc">    572.18391898 </i>
    <i name="pawaedc">   -575.87962824 </i>
    <i name="eentropy">      0.00000000 </i>
    <i name="bandstr">   -192.60106124 </i>
    <i name="atom">    864.67971496 </i>
    <i name="e_fr_energy">     -9.84129256 </i>
    <i name="e_wo_entrp">     -9.84129256 </i>
    <i name="e_0_energy">     -9.84129256 </i>
   </energy>
  </scstep>
  <structure>
   <crystal>
    <varray name="basis" >
     <v>       9.00000000       0.00000000       0.00000000 </v>
     <v>       0.00000000      10.00000000       0.00000000 </v>
     <v>       0.00000000       0.00000000      11.00000000 </v>
    </varray>
    <i name="volume">    990.00000000 </i>
    <varray name="rec_basis" >
     <v>       0.11111111       0.00000000       0.00000000 </v>
     <v>       0.00000000       0.10000000       0.00000000 </v>
     <v>       0.00000000       0.00000000       0.09090909 </v>
    </varray>
   </crystal>
   <varray name="positions" >
    <v>       0.44357254       0.50558477       0.50249870 </v>
    <v>       0.57815969       0.50337523       0.49632130 </v>
   </varray>
  </structure>
  <varray name="forces" >
   <v>      -1.55259071       0.02712976       0.08643212 </v>
   <v>       1.55259071      -0.02712976      -0.08643212 </v>
  </varray>
  <varray name="stress" >
   <v>       2.51096107      -0.05804089      -0.18138983 </v>
   <v>      -0.05804089      -0.72599658       0.00230939 </v>
   <v>      -0.18138983       0.00230939      -0.74744261 </v>
  </varray>
  <energy>
   <i name="e_fr_energy">     -9.84129256 </i>
   <i name="e_wo_entrp">     -9.84129256 </i>
   <i name="e_0_energy">      0.00000000 </i>
  </energy>
  <kpoints>
   <generation param="Gamma">
    <v type="int" name="divisions">       1        1        1 </v>
    <v name="usershift">      0.00000000       0.00000000       0.00000000 </v>
    <v name="genvec1">      1.00000000       0.00000000       0.00000000 </v>
    <v name="genvec2">      0.00000000       1.00000000       0.00000000 </v>
    <v name="genvec3">      0.00000000       0.00000000       1.00000000 </v>
    <v name="shift">      0.00000000       0.00000000       0.00000000 </v>
   </generation>
   <varray name="kpointlist" >
    <v>       0.00000000       0.00000000       0.00000000 </v>
   </varray>
   <varray name="weights" >
    <v>       1.00000000 </v>
   </varray>
  </kpoints>
  <time name="totalsc">    2.83    2.88</time>
 </calculation>
 <calculation>
  <scstep>
   <time name="dav">    0.13    0.13</time>
   <time name="total">    0.24    0.25</time>
   <energy>
    <i name="alphaZ">      0.56134412 </i>
    <i name="ewald">    124.12414971 </i>
    <i name="hartreedc">   -862.10193844 </i>
    <i name="XCdc">     55.42493012 </i>
    <i name="pawpsdc">    572.18414727 </i>
    <i name="pawaedc">   -575.87986094 </i>
    <i name="eentropy">      0.00000000 </i>
    <i name="bandstr">   -188.83159869 </i>
    <i name="atom">    864.67971496 </i>
    <i name="e_fr_energy">     -9.83911190 </i>
    <i name="e_wo_entrp">     -9.83911190 </i>
    <i name="e_0_energy">     -9.83911190 </i>
   </energy>
  </scstep>
  <scstep>
   <time name="diag">    0.02    0.02</time>
   <time name="diis">    0.08    0.08</time>
   <time name="orth">    0.00    0.00</time>
   <time name="total">    0.22    0.22</time>
   <energy>
    <i name="e_fr_energy">     -9.82898537 </i>
    <i name="e_wo_entrp">     -9.82898537 </i>
    <i name="e_0_energy">     -9.82898537 </i>
   </energy>
  </scstep>
  <scstep>
   <time name="diag">    0.02    0.02</time>
   <time name="diis">    0.08    0.08</time>
   <time name="orth">    0.00    0.00</time>
   <time name="total">    0.22    0.22</time>
   <energy>
    <i name="e_fr_energy">     -9.84008068 </i>
    <i name="e_wo_entrp">     -9.84008068 </i>
    <i name="e_0_energy">     -9.84008068 </i>
   </energy>
  </scstep>
  <scstep>
   <time name="diag">    0.02    0.02</time>
   <time name="diis">    0.08    0.08</time>
   <time name="orth">    0.00    0.00</time>
   <time name="total">    0.22    0.22</time>
   <energy>
    <i name="e_fr_energy">     -9.84188236 </i>
    <i name="e_wo_entrp">     -9.84188236 </i>
    <i name="e_0_energy">     -9.84188236 </i>
   </energy>
  </scstep>
  <scstep>
   <time name="diag">    0.02    0.02</time>
   <time name="diis">    0.08    0.08</time>
   <time name="orth">    0.00    0.00</time>
   <time name="total">    0.22    0.22</time>
   <energy>
    <i name="e_fr_energy">     -9.84242583 </i>
    <i name="e_wo_entrp">     -9.84242583 </i>
    <i name="e_0_energy">     -9.84242583 </i>
   </energy>
  </scstep>
  <scstep>
   <time name="diag">    0.02    0.02</time>
   <time name="diis">    0.08    0.08</time>
   <time name="orth">    0.00    0.00</time>
   <time name="total">    0.22    0.22</time>
   <energy>
    <i name="e_fr_energy">     -9.84257100 </i>
    <i name="e_wo_entrp">     -9.84257100 </i>
    <i name="e_0_energy">     -9.84257100 </i>
   </energy>
  </scstep>
  <scstep>
   <time name="diag">    0.02    0.02</time>
   <time name="diis">    0.08    0.08</time>
   <time name="orth">    0.00    0.00</time>
   <time name="total">    0.22    0.22</time>
   <energy>
    <i name="e_fr_energy">     -9.84263429 </i>
    <i name="e_wo_entrp">     -9.84263429 </i>
    <i name="e_0_energy">     -9.84263429 </i>
   </energy>
  </scstep>
  <scstep>
   <time name="diag">    0.02    0.02</time>
   <time name="diis">    0.08    0.08</time>
   <time name="orth">    0.00    0.00</time>
   <time name="total">    0.22    0.22</time>
   <energy>
    <i name="e_fr_energy">     -9.84266071 </i>
    <i name="e_wo_entrp">     -9.84266071 </i>
    <i name="e_0_energy">     -9.84266071 </i>
   </energy>
  </scstep>
  <scstep>
   <time name="diag">    0.02    0.02</time>
   <time name="diis">    0.08    0.08</time>
   <time name="orth">    0.00    0.00</time>
   <time name="total">    0.22    0.22</time>
   <energy>
    <i name="e_fr_energy">     -9.84268469 </i>
    <i name="e_wo_entrp">     -9.84268469 </i>
    <i name="e_0_energy">     -9.84268469 </i>
   </energy>
  </scstep>
  <scstep>
   <time name="diag">    0.02    0.02</time>
   <time name="diis">    0.08    0.08</time>
   <time name="orth">    0.00    0.00</time>
   <time name="total">    0.22    0.22</time>
   <energy>
    <i name="e_fr_energy">     -9.84270638 </i>
    <i name="e_wo_entrp">     -9.84270638 </i>
    <i name="e_0_energy">     -9.84270638 </i>
   </energy>
  </scstep>
  <scstep>
   <time name="diag">    0.02    0.02</time>
   <time name="diis">    0.08    0.08</time>
   <time name="orth">    0.00    0.00</time>
   <time name="total">    0.22    0.22</time>
   <energy>
    <i name="e_fr_energy">     -9.84271684 </i>
    <i name="e_wo_entrp">     -9.84271684 </i>
    <i name="e_0_energy">     -9.84271684 </i>
   </energy>
  </scstep>
  <scstep>
   <time name="diag">    0.02    0.02</time>
   <time name="diis">    0.08    0.08</time>
   <time name="orth">    0.00    0.00</time>
   <time name="total">    0.22    0.22</time>
   <energy>
    <i name="e_fr_energy">     -9.84272193 </i>
    <i name="e_wo_entrp">     -9.84272193 </i>
    <i name="e_0_energy">     -9.84272193 </i>
   </energy>
  </scstep>
  <scstep>
   <time name="diag">    0.02    0.02</time>
   <time name="diis">    0.08    0.08</time>
   <time name="orth">    0.00    0.00</time>
   <time name="total">    0.17    0.17</time>
   <energy>
    <i name="alphaZ">      0.56134412 </i>
    <i name="ewald">    124.12414971 </i>
    <i name="hartreedc">   -860.23459337 </i>
    <i name="XCdc">     55.30655966 </i>
    <i name="pawpsdc">    559.49553672 </i>
    <i name="pawaedc">   -563.13185373 </i>
    <i name="eentropy">      0.00000000 </i>
    <i name="bandstr">   -190.64358269 </i>
    <i name="atom">    864.67971496 </i>
    <i name="e_fr_energy">     -9.84272463 </i>
    <i name="e_wo_entrp">     -9.84272463 </i>
    <i name="e_0_energy">     -9.84272463 </i>
   </energy>
  </scstep>
  <structure>
   <crystal>
    <varray name="basis" >
     <v>       9.00000000       0.00000000       0.00000000 </v>
     <v>       0.00000000      10.00000000       0.00000000 </v>
     <v>       0.00000000       0.00000000      11.00000000 </v>
    </varray>
    <i name="volume">    990.00000000 </i>
    <varray name="rec_basis" >
     <v>       0.11111111       0.00000000       0.00000000 </v>
     <v>       0.00000000       0.10000000       0.00000000 </v>
     <v>       0.00000000       0.00000000       0.09090909 </v>
    </varray>
   </crystal>
   <varray name="positions" >
    <v>       0.43912809       0.50558477       0.50249870 </v>
    <v>       0.57815969       0.50337523       0.49632130 </v>
   </varray>
  </structure>
  <varray name="forces" >
   <v>       1.33768116      -0.02326315      -0.07043738 </v>
   <v>      -1.33768116       0.02326315       0.07043738 </v>
  </varray>
  <varray name="stress" >
   <v>      -3.21002908       0.04343061       0.13866926 </v>
   <v>       0.04343061      -0.72261682      -0.00415898 </v>
   <v>       0.13866926      -0.00415898      -0.75891818 </v>
  </varray>
  <energy>
   <i name="e_fr_energy">     -9.84272463 </i>
   <i name="e_wo_entrp">     -9.84272463 </i>
   <i name="e_0_energy">      0.00000000 </i>
  </energy>
  <kpoints>
   <generation param="Gamma">
    <v type="int" name="divisions">       1        1        1 </v>
    <v name="usershift">      0.00000000       0.00000000       0.00000000 </v>
    <v name="genvec1">      1.00000000       0.00000000       0.00000000 </v>
    <v name="genvec2">      0.00000000       1.00000000       0.00000000 </v>
    <v name="genvec3">      0.00000000       0.00000000       1.00000000 </v>
    <v name="shift">      0.00000000       0.00000000       0.00000000 </v>
   </generation>
   <varray name="kpointlist" >
    <v>       0.00000000       0.00000000       0.00000000 </v>
   </varray>
   <varray name="weights" >
    <v>       1.00000000 </v>
   </varray>
  </kpoints>
  <time name="totalsc">    3.05    3.07</time>
 </calculation>
 <calculation>
  <scstep>
   <time name="dav">    0.09    0.09</time>
   <time name="total">    0.20    0.21</time>
   <energy>
    <i name="alphaZ">      0.56134412 </i>
    <i name="ewald">    130.55968714 </i>
    <i name="hartreedc">   -864.97921039 </i>
    <i name="XCdc">     55.39103054 </i>
    <i name="pawpsdc">    559.49663805 </i>
    <i name="pawaedc">   -563.13296974 </i>
    <i name="eentropy">      0.00000000 </i>
    <i name="bandstr">   -192.42796663 </i>
    <i name="atom">    864.67971496 </i>
    <i name="e_fr_energy">     -9.85173195 </i>
    <i name="e_wo_entrp">     -9.85173195 </i>
    <i name="e_0_energy">     -9.85173195 </i>
   </energy>
  </scstep>
  <scstep>
   <time name="diag">    0.02    0.02</time>
   <time name="diis">    0.08    0.08</time>
   <time name="orth">    0.00    0.00</time>
   <time name="total">    0.22    0.22</time>
   <energy>
    <i name="e_fr_energy">     -9.84686872 </i>
    <i name="e_wo_entrp">     -9.84686872 </i>
    <i name="e_0_energy">     -9.84686872 </i>
   </energy>
  </scstep>
  <scstep>
   <time name="diag">    0.02    0.02</time>
   <time name="diis">    0.08    0.08</time>
   <time name="orth">    0.00    0.00</time>
   <time name="total">    0.22    0.22</time>
   <energy>
    <i name="e_fr_energy">     -9.85488335 </i>
    <i name="e_wo_entrp">     -9.85488335 </i>
    <i name="e_0_energy">     -9.85488335 </i>
   </energy>
  </scstep>
  <scstep>
   <time name="diag">    0.02    0.02</time>
   <time name="diis">    0.08    0.08</time>
   <time name="orth">    0.00    0.00</time>
   <time name="total">    0.22    0.22</time>
   <energy>
    <i name="e_fr_energy">     -9.85584851 </i>
    <i name="e_wo_entrp">     -9.85584851 </i>
    <i name="e_0_energy">     -9.85584851 </i>
   </energy>
  </scstep>
  <scstep>
   <time name="diag">    0.02    0.02</time>
   <time name="diis">    0.08    0.08</time>
   <time name="orth">    0.00    0.00</time>
   <time name="total">    0.22    0.22</time>
   <energy>
    <i name="e_fr_energy">     -9.85627074 </i>
    <i name="e_wo_entrp">     -9.85627074 </i>
    <i name="e_0_energy">     -9.85627074 </i>
   </energy>
  </scstep>
  <scstep>
   <time name="diag">    0.02    0.02</time>
   <time name="diis">    0.08    0.08</time>
   <time name="orth">    0.00    0.00</time>
   <time name="total">    0.22    0.22</time>
   <energy>
    <i name="e_fr_energy">     -9.85632538 </i>
    <i name="e_wo_entrp">     -9.85632538 </i>
    <i name="e_0_energy">     -9.85632538 </i>
   </energy>
  </scstep>
  <scstep>
   <time name="diag">    0.02    0.02</time>
   <time name="diis">    0.08    0.08</time>
   <time name="orth">    0.00    0.00</time>
   <time name="total">    0.22    0.22</time>
   <energy>
    <i name="e_fr_energy">     -9.85637367 </i>
    <i name="e_wo_entrp">     -9.85637367 </i>
    <i name="e_0_energy">     -9.85637367 </i>
   </energy>
  </scstep>
  <scstep>
   <time name="diag">    0.02    0.02</time>
   <time name="diis">    0.08    0.08</time>
   <time name="orth">    0.00    0.00</time>
   <time name="total">    0.22    0.22</time>
   <energy>
    <i name="e_fr_energy">     -9.85638490 </i>
    <i name="e_wo_entrp">     -9.85638490 </i>
    <i name="e_0_energy">     -9.85638490 </i>
   </energy>
  </scstep>
  <scstep>
   <time name="diag">    0.02    0.02</time>
   <time name="diis">    0.08    0.08</time>
   <time name="orth">    0.00    0.00</time>
   <time name="total">    0.22    0.22</time>
   <energy>
    <i name="e_fr_energy">     -9.85639437 </i>
    <i name="e_wo_entrp">     -9.85639437 </i>
    <i name="e_0_energy">     -9.85639437 </i>
   </energy>
  </scstep>
  <scstep>
   <time name="diag">    0.02    0.02</time>
   <time name="diis">    0.08    0.08</time>
   <time name="orth">    0.00    0.00</time>
   <time name="total">    0.22    0.22</time>
   <energy>
    <i name="e_fr_energy">     -9.85640158 </i>
    <i name="e_wo_entrp">     -9.85640158 </i>
    <i name="e_0_energy">     -9.85640158 </i>
   </energy>
  </scstep>
  <scstep>
   <time name="diag">    0.02    0.02</time>
   <time name="diis">    0.08    0.08</time>
   <time name="orth">    0.00    0.00</time>
   <time name="total">    0.22    0.22</time>
   <energy>
    <i name="e_fr_energy">     -9.85640983 </i>
    <i name="e_wo_entrp">     -9.85640983 </i>
    <i name="e_0_energy">     -9.85640983 </i>
   </energy>
  </scstep>
  <scstep>
   <time name="diag">    0.02    0.02</time>
   <time name="diis">    0.08    0.08</time>
   <time name="orth">    0.00    0.00</time>
   <time name="total">    0.17    0.17</time>
   <energy>
    <i name="alphaZ">      0.56134412 </i>
    <i name="ewald">    130.55968714 </i>
    <i name="hartreedc">   -865.86920321 </i>
    <i name="XCdc">     55.44720186 </i>
    <i name="pawpsdc">    565.43830746 </i>
    <i name="pawaedc">   -569.10195185 </i>
    <i name="eentropy">      0.00000000 </i>
    <i name="bandstr">   -191.57151488 </i>
    <i name="atom">    864.67971496 </i>
    <i name="e_fr_energy">     -9.85641441 </i>
    <i name="e_wo_entrp">     -9.85641441 </i>
    <i name="e_0_energy">     -9.85641441 </i>
   </energy>
  </scstep>
  <structure>
   <crystal>
    <varray name="basis" >
     <v>       9.00000000       0.00000000       0.00000000 </v>
     <v>       0.00000000      10.00000000       0.00000000 </v>
     <v>       0.00000000       0.00000000      11.00000000 </v>
    </varray>
    <i name="volume">    990.00000000 </i>
    <varray name="rec_basis" >
     <v>       0.11111111       0.00000000       0.00000000 </v>
     <v>       0.00000000       0.10000000       0.00000000 </v>
     <v>       0.00000000       0.00000000       0.09090909 </v>
    </varray>
   </crystal>
   <varray name="positions" >
    <v>       0.44135031       0.50758477       0.50249870 </v>
    <v>       0.57815969       0.50337523       0.49632130 </v>
   </varray>
  </structure>
  <varray name="forces" >
   <v>       0.03798763      -0.00298713      -0.00224195 </v>
   <v>      -0.03798763       0.00298713       0.00224195 </v>
  </varray>
  <varray name="stress" >
   <v>      -0.59658150      -0.00621588      -0.00324081 </v>
   <v>      -0.00621589      -0.72353604      -0.00172373 </v>
   <v>      -0.00324082      -0.00172373      -0.75228973 </v>
  </varray>
  <energy>
   <i name="e_fr_energy">     -9.85641441 </i>
   <i name="e_wo_entrp">     -9.85641441 </i>
   <i name="e_0_energy">      0.00000000 </i>
  </energy>
  <kpoints>
   <generation param="Gamma">
    <v type="int" name="divisions">       1        1        1 </v>
    <v name="usershift">      0.00000000       0.00000000       0.00000000 </v>
    <v name="genvec1">      1.00000000       0.00000000       0.00000000 </v>
    <v name="genvec2">      0.00000000       1.00000000       0.00000000 </v>
    <v name="genvec3">      0.00000000       0.00000000       1.00000000 </v>
    <v name="shift">      0.00000000       0.00000000       0.00000000 </v>
   </generation>
   <varray name="kpointlist" >
    <v>       0.00000000       0.00000000       0.00000000 </v>
   </varray>
   <varray name="weights" >
    <v>       1.00000000 </v>
   </varray>
  </kpoints>
  <time name="totalsc">    2.80    2.83</time>
 </calculation>
 <calculation>
  <scstep>
   <time name="dav">    0.09    0.09</time>
   <time name="total">    0.20    0.21</time>
   <energy>
    <i name="alphaZ">      0.56134412 </i>
    <i name="ewald">    130.80213036 </i>
    <i name="hartreedc">   -866.03404797 </i>
    <i name="XCdc">     55.45034679 </i>
    <i name="pawpsdc">    565.43821465 </i>
    <i name="pawaedc">   -569.10185342 </i>
    <i name="eentropy">      0.00000000 </i>
    <i name="bandstr">   -191.63997384 </i>
    <i name="atom">    864.67971496 </i>
    <i name="e_fr_energy">     -9.84412435 </i>
    <i name="e_wo_entrp">     -9.84412435 </i>
    <i name="e_0_energy">     -9.84412435 </i>
   </energy>
  </scstep>
  <scstep>
   <time name="diag">    0.02    0.02</time>
   <time name="diis">    0.08    0.08</time>
   <time name="orth">    0.00    0.00</time>
   <time name="total">    0.22    0.22</time>
   <energy>
    <i name="e_fr_energy">     -9.83717526 </i>
    <i name="e_wo_entrp">     -9.83717526 </i>
    <i name="e_0_energy">     -9.83717526 </i>
   </energy>
  </scstep>
  <scstep>
   <time name="diag">    0.02    0.02</time>
   <time name="diis">    0.08    0.08</time>
   <time name="orth">    0.00    0.00</time>
   <time name="total">    0.22    0.22</time>
   <energy>
    <i name="e_fr_energy">     -9.85331292 </i>
    <i name="e_wo_entrp">     -9.85331292 </i>
    <i name="e_0_energy">     -9.85331292 </i>
   </energy>
  </scstep>
  <scstep>
   <time name="diag">    0.02    0.02</time>
   <time name="diis">    0.08    0.08</time>
   <time name="orth">    0.00    0.00</time>
   <time name="total">    0.22    0.22</time>
   <energy>
    <i name="e_fr_energy">     -9.85536899 </i>
    <i name="e_wo_entrp">     -9.85536899 </i>
    <i name="e_0_energy">     -9.85536899 </i>
   </energy>
  </scstep>
  <scstep>
   <time name="diag">    0.02    0.02</time>
   <time name="diis">    0.08    0.08</time>
   <time name="orth">    0.00    0.00</time>
   <time name="total">    0.22    0.22</time>
   <energy>
    <i name="e_fr_energy">     -9.85603447 </i>
    <i name="e_wo_entrp">     -9.85603447 </i>
    <i name="e_0_energy">     -9.85603447 </i>
   </energy>
  </scstep>
  <scstep>
   <time name="diag">    0.02    0.02</time>
   <time name="diis">    0.08    0.08</time>
   <time name="orth">    0.00    0.00</time>
   <time name="total">    0.21    0.22</time>
   <energy>
    <i name="e_fr_energy">     -9.85631320 </i>
    <i name="e_wo_entrp">     -9.85631320 </i>
    <i name="e_0_energy">     -9.85631320 </i>
   </energy>
  </scstep>
  <scstep>
   <time name="diag">    0.02    0.02</time>
   <time name="diis">    0.08    0.08</time>
   <time name="orth">    0.00    0.00</time>
   <time name="total">    0.22    0.22</time>
   <energy>
    <i name="e_fr_energy">     -9.85634411 </i>
    <i name="e_wo_entrp">     -9.85634411 </i>
    <i name="e_0_energy">     -9.85634411 </i>
   </energy>
  </scstep>
  <scstep>
   <time name="diag">    0.02    0.02</time>
   <time name="diis">    0.08    0.08</time>
   <time name="orth">    0.00    0.00</time>
   <time name="total">    0.22    0.22</time>
   <energy>
    <i name="e_fr_energy">     -9.85636907 </i>
    <i name="e_wo_entrp">     -9.85636907 </i>
    <i name="e_0_energy">     -9.85636907 </i>
   </energy>
  </scstep>
  <scstep>
   <time name="diag">    0.02    0.02</time>
   <time name="diis">    0.08    0.08</time>
   <time name="orth">    0.00    0.00</time>
   <time name="total">    0.17    0.17</time>
   <energy>
    <i name="alphaZ">      0.56134412 </i>
    <i name="ewald">    130.80213036 </i>
    <i name="hartreedc">   -866.08413209 </i>
    <i name="XCdc">     55.45264601 </i>
    <i name="pawpsdc">    565.66565765 </i>
    <i name="pawaedc">   -569.33041444 </i>
    <i name="eentropy">      0.00000000 </i>
    <i name="bandstr">   -191.60331950 </i>
    <i name="atom">    864.67971496 </i>
    <i name="e_fr_energy">     -9.85637292 </i>
    <i name="e_wo_entrp">     -9.85637292 </i>
    <i name="e_0_energy">     -9.85637292 </i>
   </energy>
  </scstep>
  <structure>
   <crystal>
    <varray name="basis" >
     <v>       9.00000000       0.00000000       0.00000000 </v>
     <v>       0.00000000      10.00000000       0.00000000 </v>
     <v>       0.00000000       0.00000000      11.00000000 </v>
    </varray>
    <i name="volume">    990.00000000 </i>
    <varray name="rec_basis" >
     <v>       0.11111111       0.00000000       0.00000000 </v>
     <v>       0.00000000       0.10000000       0.00000000 </v>
     <v>       0.00000000       0.00000000       0.09090909 </v>
    </varray>
   </crystal>
   <varray name="positions" >
    <v>       0.44135031       0.50358477       0.50249870 </v>
    <v>       0.57815969       0.50337523       0.49632130 </v>
   </varray>
  </structure>
  <varray name="forces" >
   <v>      -0.01131553       0.00012078       0.00240765 </v>
   <v>       0.01131553      -0.00012078      -0.00240765 </v>
  </varray>
  <varray name="stress" >
   <v>      -0.49261737       0.00169675      -0.00892177 </v>
   <v>       0.00169675      -0.72875028      -0.00105779 </v>
   <v>      -0.00892177      -0.00105779      -0.75495389 </v>
  </varray>
  <energy>
   <i name="e_fr_energy">     -9.85637292 </i>
   <i name="e_wo_entrp">     -9.85637292 </i>
   <i name="e_0_energy">      0.00000000 </i>
  </energy>
  <kpoints>
   <generation param="Gamma">
    <v type="int" name="divisions">       1        1        1 </v>
    <v name="usershift">      0.00000000       0.00000000       0.00000000 </v>
    <v name="genvec1">      1.00000000       0.00000000       0.00000000 </v>
    <v name="genvec2">      0.00000000       1.00000000       0.00000000 </v>
    <v name="genvec3">      0.00000000       0.00000000       1.00000000 </v>
    <v name="shift">      0.00000000       0.00000000       0.00000000 </v>
   </generation>
   <varray name="kpointlist" >
    <v>       0.00000000       0.00000000       0.00000000 </v>
   </varray>
   <varray name="weights" >
    <v>       1.00000000 </v>
   </varray>
  </kpoints>
  <time name="totalsc">    2.15    2.17</time>
 </calculation>
 <calculation>
  <scstep>
   <time name="dav">    0.09    0.09</time>
   <time name="total">    0.20    0.21</time>
   <energy>
    <i name="alphaZ">      0.56134412 </i>
    <i name="ewald">    130.30721672 </i>
    <i name="hartreedc">   -865.71304731 </i>
    <i name="XCdc">     55.44614383 </i>
    <i name="pawpsdc">    565.66558737 </i>
    <i name="pawaedc">   -569.33034410 </i>
    <i name="eentropy">      0.00000000 </i>
    <i name="bandstr">   -191.46671090 </i>
    <i name="atom">    864.67971496 </i>
    <i name="e_fr_energy">     -9.85009531 </i>
    <i name="e_wo_entrp">     -9.85009531 </i>
    <i name="e_0_energy">     -9.85009531 </i>
   </energy>
  </scstep>
  <scstep>
   <time name="diag">    0.02    0.02</time>
   <time name="diis">    0.08    0.08</time>
   <time name="orth">    0.00    0.00</time>
   <time name="total">    0.22    0.22</time>
   <energy>
    <i name="e_fr_energy">     -9.84546170 </i>
    <i name="e_wo_entrp">     -9.84546170 </i>
    <i name="e_0_energy">     -9.84546170 </i>
   </energy>
  </scstep>
  <scstep>
   <time name="diag">    0.02    0.02</time>
   <time name="diis">    0.08    0.08</time>
   <time name="orth">    0.00    0.00</time>
   <time name="total">    0.22    0.22</time>
   <energy>
    <i name="e_fr_energy">     -9.85453896 </i>
    <i name="e_wo_entrp">     -9.85453896 </i>
    <i name="e_0_energy">     -9.85453896 </i>
   </energy>
  </scstep>
  <scstep>
   <time name="diag">    0.02    0.02</time>
   <time name="diis">    0.08    0.08</time>
   <time name="orth">    0.00    0.00</time>
   <time name="total">    0.22    0.22</time>
   <energy>
    <i name="e_fr_energy">     -9.85563686 </i>
    <i name="e_wo_entrp">     -9.85563686 </i>
    <i name="e_0_energy">     -9.85563686 </i>
   </energy>
  </scstep>
  <scstep>
   <time name="diag">    0.02    0.02</time>
   <time name="diis">    0.08    0.08</time>
   <time name="orth">    0.00    0.00</time>
   <time name="total">    0.22    0.22</time>
   <energy>
    <i name="e_fr_energy">     -9.85612649 </i>
    <i name="e_wo_entrp">     -9.85612649 </i>
    <i name="e_0_energy">     -9.85612649 </i>
   </energy>
  </scstep>
  <scstep>
   <time name="diag">    0.02    0.02</time>
   <time name="diis">    0.08    0.08</time>
   <time name="orth">    0.00    0.00</time>
   <time name="total">    0.22    0.22</time>
   <energy>
    <i name="e_fr_energy">     -9.85629020 </i>
    <i name="e_wo_entrp">     -9.85629020 </i>
    <i name="e_0_energy">     -9.85629020 </i>
   </energy>
  </scstep>
  <scstep>
   <time name="diag">    0.02    0.02</time>
   <time name="diis">    0.08    0.08</time>
   <time name="orth">    0.00    0.00</time>
   <time name="total">    0.22    0.22</time>
   <energy>
    <i name="e_fr_energy">     -9.85633228 </i>
    <i name="e_wo_entrp">     -9.85633228 </i>
    <i name="e_0_energy">     -9.85633228 </i>
   </energy>
  </scstep>
  <scstep>
   <time name="diag">    0.02    0.02</time>
   <time name="diis">    0.08    0.08</time>
   <time name="orth">    0.00    0.00</time>
   <time name="total">    0.22    0.22</time>
   <energy>
    <i name="e_fr_energy">     -9.85634057 </i>
    <i name="e_wo_entrp">     -9.85634057 </i>
    <i name="e_0_energy">     -9.85634057 </i>
   </energy>
  </scstep>
  <scstep>
   <time name="diag">    0.02    0.02</time>
   <time name="diis">    0.08    0.08</time>
   <time name="orth">    0.00    0.00</time>
   <time name="total">    0.17    0.17</time>
   <energy>
    <i name="alphaZ">      0.56134412 </i>
    <i name="ewald">    130.30721672 </i>
    <i name="hartreedc">   -865.65079181 </i>
    <i name="XCdc">     55.44176047 </i>
    <i name="pawpsdc">    565.20063006 </i>
    <i name="pawaedc">   -568.86319977 </i>
    <i name="eentropy">      0.00000000 </i>
    <i name="bandstr">   -191.53301978 </i>
    <i name="atom">    864.67971496 </i>
    <i name="e_fr_energy">     -9.85634503 </i>
    <i name="e_wo_entrp">     -9.85634503 </i>
    <i name="e_0_energy">     -9.85634503 </i>
   </energy>
  </scstep>
  <structure>
   <crystal>
    <varray name="basis" >
     <v>       9.00000000       0.00000000       0.00000000 </v>
     <v>       0.00000000      10.00000000       0.00000000 </v>
     <v>       0.00000000       0.00000000      11.00000000 </v>
    </varray>
    <i name="volume">    990.00000000 </i>
    <varray name="rec_basis" >
     <v>       0.11111111       0.00000000       0.00000000 </v>
     <v>       0.00000000       0.10000000       0.00000000 </v>
     <v>       0.00000000       0.00000000       0.09090909 </v>
    </varray>
   </crystal>
   <varray name="positions" >
    <v>       0.44135031       0.50558477       0.50431688 </v>
    <v>       0.57815969       0.50337523       0.49632130 </v>
   </varray>
  </structure>
  <varray name="forces" >
   <v>       0.09095688      -0.00178603      -0.00850227 </v>
   <v>      -0.09095688       0.00178603       0.00850227 </v>
  </varray>
  <varray name="stress" >
   <v>      -0.70872018      -0.00019177       0.00030035 </v>
   <v>      -0.00019176      -0.72652025       0.00350642 </v>
   <v>       0.00030035       0.00350642      -0.75326277 </v>
  </varray>
  <energy>
   <i name="e_fr_energy">     -9.85634503 </i>
   <i name="e_wo_entrp">     -9.85634503 </i>
   <i name="e_0_energy">      0.00000000 </i>
  </energy>
  <kpoints>
   <generation param="Gamma">
    <v type="int" name="divisions">       1        1        1 </v>
    <v name="usershift">      0.00000000       0.00000000       0.00000000 </v>
    <v name="genvec1">      1.00000000       0.00000000       0.00000000 </v>
    <v name="genvec2">      0.00000000       1.00000000       0.00000000 </v>
    <v name="genvec3">      0.00000000       0.00000000       1.00000000 </v>
    <v name="shift">      0.00000000       0.00000000       0.00000000 </v>
   </generation>
   <varray name="kpointlist" >
    <v>       0.00000000       0.00000000       0.00000000 </v>
   </varray>
   <varray name="weights" >
    <v>       1.00000000 </v>
   </varray>
  </kpoints>
  <time name="totalsc">    2.15    2.17</time>
 </calculation>
 <calculation>
  <scstep>
   <time name="dav">    0.09    0.09</time>
   <time name="total">    0.20    0.21</time>
   <energy>
    <i name="alphaZ">      0.56134412 </i>
    <i name="ewald">    131.05515627 </i>
    <i name="hartreedc">   -866.18739103 </i>
    <i name="XCdc">     55.45152249 </i>
    <i name="pawpsdc">    565.20195208 </i>
    <i name="pawaedc">   -568.86454233 </i>
    <i name="eentropy">      0.00000000 </i>
    <i name="bandstr">   -191.74107602 </i>
    <i name="atom">    864.67971496 </i>
    <i name="e_fr_energy">     -9.84331947 </i>
    <i name="e_wo_entrp">     -9.84331947 </i>
    <i name="e_0_energy">     -9.84331947 </i>
   </energy>
  </scstep>
  <scstep>
   <time name="diag">    0.02    0.02</time>
   <time name="diis">    0.08    0.08</time>
   <time name="orth">    0.00    0.00</time>
   <time name="total">    0.22    0.22</time>
   <energy>
    <i name="e_fr_energy">     -9.83674607 </i>
    <i name="e_wo_entrp">     -9.83674607 </i>
    <i name="e_0_energy">     -9.83674607 </i>
   </energy>
  </scstep>
  <scstep>
   <time name="diag">    0.02    0.02</time>
   <time name="diis">    0.08    0.08</time>
   <time name="orth">    0.00    0.00</time>
   <time name="total">    0.22    0.22</time>
   <energy>
    <i name="e_fr_energy">     -9.85301902 </i>
    <i name="e_wo_entrp">     -9.85301902 </i>
    <i name="e_0_energy">     -9.85301902 </i>
   </energy>
  </scstep>
  <scstep>
   <time name="diag">    0.02    0.02</time>
   <time name="diis">    0.08    0.08</time>
   <time name="orth">    0.00    0.00</time>
   <time name="total">    0.22    0.22</time>
   <energy>
    <i name="e_fr_energy">     -9.85506596 </i>
    <i name="e_wo_entrp">     -9.85506596 </i>
    <i name="e_0_energy">     -9.85506596 </i>
   </energy>
  </scstep>
  <scstep>
   <time name="diag">    0.02    0.02</time>
   <time name="diis">    0.08    0.08</time>
   <time name="orth">    0.00    0.00</time>
   <time name="total">    0.22    0.22</time>
   <energy>
    <i name="e_fr_energy">     -9.85599490 </i>
    <i name="e_wo_entrp">     -9.85599490 </i>
    <i name="e_0_energy">     -9.85599490 </i>
   </energy>
  </scstep>
  <scstep>
   <time name="diag">    0.02    0.02</time>
   <time name="diis">    0.08    0.08</time>
   <time name="orth">    0.00    0.00</time>
   <time name="total">    0.22    0.22</time>
   <energy>
    <i name="e_fr_energy">     -9.85626700 </i>
    <i name="e_wo_entrp">     -9.85626700 </i>
    <i name="e_0_energy">     -9.85626700 </i>
   </energy>
  </scstep>
  <scstep>
   <time name="diag">    0.02    0.02</time>
   <time name="diis">    0.08    0.08</time>
   <time name="orth">    0.00    0.00</time>
   <time name="total">    0.22    0.22</time>
   <energy>
    <i name="e_fr_energy">     -9.85634499 </i>
    <i name="e_wo_entrp">     -9.85634499 </i>
    <i name="e_0_energy">     -9.85634499 </i>
   </energy>
  </scstep>
  <scstep>
   <time name="diag">    0.02    0.02</time>
   <time name="diis">    0.08    0.08</time>
   <time name="orth">    0.00    0.00</time>
   <time name="total">    0.22    0.22</time>
   <energy>
    <i name="e_fr_energy">     -9.85635825 </i>
    <i name="e_wo_entrp">     -9.85635825 </i>
    <i name="e_0_energy">     -9.85635825 </i>
   </energy>
  </scstep>
  <scstep>
   <time name="diag">    0.02    0.02</time>
   <time name="diis">    0.08    0.08</time>
   <time name="orth">    0.00    0.00</time>
   <time name="total">    0.17    0.17</time>
   <energy>
    <i name="alphaZ">      0.56134412 </i>
    <i name="ewald">    131.05515627 </i>
    <i name="hartreedc">   -866.30550316 </i>
    <i name="XCdc">     55.45815236 </i>
    <i name="pawpsdc">    565.90461462 </i>
    <i name="pawaedc">   -569.57049931 </i>
    <i name="eentropy">      0.00000000 </i>
    <i name="bandstr">   -191.63933892 </i>
    <i name="atom">    864.67971496 </i>
    <i name="e_fr_energy">     -9.85635907 </i>
    <i name="e_wo_entrp">     -9.85635907 </i>
    <i name="e_0_energy">     -9.85635907 </i>
   </energy>
  </scstep>
  <structure>
   <crystal>
    <varray name="basis" >
     <v>       9.00000000       0.00000000       0.00000000 </v>
     <v>       0.00000000      10.00000000       0.00000000 </v>
     <v>       0.00000000       0.00000000      11.00000000 </v>
    </varray>
    <i name="volume">    990.00000000 </i>
    <varray name="rec_basis" >
     <v>       0.11111111       0.00000000       0.00000000 </v>
     <v>       0.00000000       0.10000000       0.00000000 </v>
     <v>       0.00000000       0.00000000       0.09090909 </v>
    </varray>
   </crystal>
   <varray name="positions" >
    <v>       0.44135031       0.50558477       0.50068052 </v>
    <v>       0.57815969       0.50337523       0.49632130 </v>
   </varray>
  </structure>
  <varray name="forces" >
   <v>      -0.06751278       0.00398101       0.00267348 </v>
   <v>       0.06751278      -0.00398101      -0.00267348 </v>
  </varray>
  <varray name="stress" >
   <v>      -0.38135458      -0.01148243      -0.00839842 </v>
   <v>      -0.01148243      -0.72519748      -0.00372136 </v>
   <v>      -0.00839842      -0.00372136      -0.75196442 </v>
  </varray>
  <energy>
   <i name="e_fr_energy">     -9.85635907 </i>
   <i name="e_wo_entrp">     -9.85635907 </i>
   <i name="e_0_energy">      0.00000000 </i>
  </energy>
  <kpoints>
   <generation param="Gamma">
    <v type="int" name="divisions">       1        1        1 </v>
    <v name="usershift">      0.00000000       0.00000000       0.00000000 </v>
    <v name="genvec1">      1.00000000       0.00000000       0.00000000 </v>
    <v name="genvec2">      0.00000000       1.00000000       0.00000000 </v>
    <v name="genvec3">      0.00000000       0.00000000       1.00000000 </v>
    <v name="shift">      0.00000000       0.00000000       0.00000000 </v>
   </generation>
   <varray name="kpointlist" >
    <v>       0.00000000       0.00000000       0.00000000 </v>
   </varray>
   <varray name="weights" >
    <v>       1.00000000 </v>
   </varray>
  </kpoints>
  <time name="totalsc">    2.15    2.16</time>
 </calculation>
 <calculation>
  <scstep>
   <time name="dav">    0.10    0.10</time>
   <time name="total">    0.21    0.21</time>
   <energy>
    <i name="alphaZ">      0.56134412 </i>
    <i name="ewald">    124.12414971 </i>
    <i name="hartreedc">   -861.18890828 </i>
    <i name="XCdc">     55.36755185 </i>
    <i name="pawpsdc">    565.90389264 </i>
    <i name="pawaedc">   -569.56977095 </i>
    <i name="eentropy">      0.00000000 </i>
    <i name="bandstr">   -189.71545391 </i>
    <i name="atom">    864.67971496 </i>
    <i name="e_fr_energy">     -9.83747986 </i>
    <i name="e_wo_entrp">     -9.83747986 </i>
    <i name="e_0_energy">     -9.83747986 </i>
   </energy>
  </scstep>
  <scstep>
   <time name="diag">    0.02    0.02</time>
   <time name="diis">    0.08    0.08</time>
   <time name="orth">    0.00    0.00</time>
   <time name="total">    0.22    0.22</time>
   <energy>
    <i name="e_fr_energy">     -9.83217810 </i>
    <i name="e_wo_entrp">     -9.83217810 </i>
    <i name="e_0_energy">     -9.83217810 </i>
   </energy>
  </scstep>
  <scstep>
   <time name="diag">    0.02    0.02</time>
   <time name="diis">    0.08    0.08</time>
   <time name="orth">    0.00    0.00</time>
   <time name="total">    0.22    0.22</time>
   <energy>
    <i name="e_fr_energy">     -9.84081342 </i>
    <i name="e_wo_entrp">     -9.84081342 </i>
    <i name="e_0_energy">     -9.84081342 </i>
   </energy>
  </scstep>
  <scstep>
   <time name="diag">    0.02    0.02</time>
   <time name="diis">    0.08    0.08</time>
   <time name="orth">    0.00    0.00</time>
   <time name="total">    0.22    0.22</time>
   <energy>
    <i name="e_fr_energy">     -9.84195746 </i>
    <i name="e_wo_entrp">     -9.84195746 </i>
    <i name="e_0_energy">     -9.84195746 </i>
   </energy>
  </scstep>
  <scstep>
   <time name="diag">    0.02    0.02</time>
   <time name="diis">    0.08    0.08</time>
   <time name="orth">    0.00    0.00</time>
   <time name="total">    0.22    0.22</time>
   <energy>
    <i name="e_fr_energy">     -9.84248535 </i>
    <i name="e_wo_entrp">     -9.84248535 </i>
    <i name="e_0_energy">     -9.84248535 </i>
   </energy>
  </scstep>
  <scstep>
   <time name="diag">    0.02    0.02</time>
   <time name="diis">    0.08    0.08</time>
   <time name="orth">    0.00    0.00</time>
   <time name="total">    0.22    0.22</time>
   <energy>
    <i name="e_fr_energy">     -9.84260905 </i>
    <i name="e_wo_entrp">     -9.84260905 </i>
    <i name="e_0_energy">     -9.84260905 </i>
   </energy>
  </scstep>
  <scstep>
   <time name="diag">    0.02    0.02</time>
   <time name="diis">    0.09    0.09</time>
   <time name="orth">    0.00    0.01</time>
   <time name="total">    0.23    0.23</time>
   <energy>
    <i name="e_fr_energy">     -9.84264517 </i>
    <i name="e_wo_entrp">     -9.84264517 </i>
    <i name="e_0_energy">     -9.84264517 </i>
   </energy>
  </scstep>
  <scstep>
   <time name="diag">    0.02    0.02</time>
   <time name="diis">    0.08    0.08</time>
   <time name="orth">    0.00    0.01</time>
   <time name="total">    0.22    0.22</time>
   <energy>
    <i name="e_fr_energy">     -9.84265371 </i>
    <i name="e_wo_entrp">     -9.84265371 </i>
    <i name="e_0_energy">     -9.84265371 </i>
   </energy>
  </scstep>
  <scstep>
   <time name="diag">    0.02    0.02</time>
   <time name="diis">    0.08    0.08</time>
   <time name="orth">    0.00    0.00</time>
   <time name="total">    0.22    0.22</time>
   <energy>
    <i name="e_fr_energy">     -9.84266407 </i>
    <i name="e_wo_entrp">     -9.84266407 </i>
    <i name="e_0_energy">     -9.84266407 </i>
   </energy>
  </scstep>
  <scstep>
   <time name="diag">    0.02    0.02</time>
   <time name="diis">    0.08    0.08</time>
   <time name="orth">    0.00    0.00</time>
   <time name="total">    0.22    0.22</time>
   <energy>
    <i name="e_fr_energy">     -9.84267156 </i>
    <i name="e_wo_entrp">     -9.84267156 </i>
    <i name="e_0_energy">     -9.84267156 </i>
   </energy>
  </scstep>
  <scstep>
   <time name="diag">    0.02    0.02</time>
   <time name="diis">    0.08    0.08</time>
   <time name="orth">    0.00    0.00</time>
   <time name="total">    0.22    0.22</time>
   <energy>
    <i name="e_fr_energy">     -9.84267703 </i>
    <i name="e_wo_entrp">     -9.84267703 </i>
    <i name="e_0_energy">     -9.84267703 </i>
   </energy>
  </scstep>
  <scstep>
   <time name="diag">    0.02    0.02</time>
   <time name="diis">    0.08    0.08</time>
   <time name="orth">    0.00    0.00</time>
   <time name="total">    0.17    0.17</time>
   <energy>
    <i name="alphaZ">      0.56134412 </i>
    <i name="ewald">    124.12414971 </i>
    <i name="hartreedc">   -860.23469523 </i>
    <i name="XCdc">     55.30656560 </i>
    <i name="pawpsdc">    559.49507225 </i>
    <i name="pawaedc">   -563.13140770 </i>
    <i name="eentropy">      0.00000000 </i>
    <i name="bandstr">   -190.64342322 </i>
    <i name="atom">    864.67971496 </i>
    <i name="e_fr_energy">     -9.84267952 </i>
    <i name="e_wo_entrp">     -9.84267952 </i>
    <i name="e_0_energy">     -9.84267952 </i>
   </energy>
  </scstep>
  <structure>
   <crystal>
    <varray name="basis" >
     <v>       9.00000000       0.00000000       0.00000000 </v>
     <v>       0.00000000      10.00000000       0.00000000 </v>
     <v>       0.00000000       0.00000000      11.00000000 </v>
    </varray>
    <i name="volume">    990.00000000 </i>
    <varray name="rec_basis" >
     <v>       0.11111111       0.00000000       0.00000000 </v>
     <v>       0.00000000       0.10000000       0.00000000 </v>
     <v>       0.00000000       0.00000000       0.09090909 </v>
    </varray>
   </crystal>
   <varray name="positions" >
    <v>       0.44135031       0.50558477       0.50249870 </v>
    <v>       0.58038191       0.50337523       0.49632130 </v>
   </varray>
  </structure>
  <varray name="forces" >
   <v>       1.33622362      -0.02275754      -0.07045452 </v>
   <v>      -1.33622362       0.02275754       0.07045452 </v>
  </varray>
  <varray name="stress" >
   <v>      -3.21074792       0.03844994       0.13917612 </v>
   <v>       0.03844994      -0.72135327      -0.00611608 </v>
   <v>       0.13917612      -0.00611608      -0.75881223 </v>
  </varray>
  <energy>
   <i name="e_fr_energy">     -9.84267952 </i>
   <i name="e_wo_entrp">     -9.84267952 </i>
   <i name="e_0_energy">      0.00000000 </i>
  </energy>
  <kpoints>
   <generation param="Gamma">
    <v type="int" name="divisions">       1        1        1 </v>
    <v name="usershift">      0.00000000       0.00000000       0.00000000 </v>
    <v name="genvec1">      1.00000000       0.00000000       0.00000000 </v>
    <v name="genvec2">      0.00000000       1.00000000       0.00000000 </v>
    <v name="genvec3">      0.00000000       0.00000000       1.00000000 </v>
    <v name="shift">      0.00000000       0.00000000       0.00000000 </v>
   </generation>
   <varray name="kpointlist" >
    <v>       0.00000000       0.00000000       0.00000000 </v>
   </varray>
   <varray name="weights" >
    <v>       1.00000000 </v>
   </varray>
  </kpoints>
  <time name="totalsc">    2.82    2.84</time>
 </calculation>
 <calculation>
  <scstep>
   <time name="dav">    0.13    0.13</time>
   <time name="total">    0.24    0.25</time>
   <energy>
    <i name="alphaZ">      0.56134412 </i>
    <i name="ewald">    137.56876607 </i>
    <i name="hartreedc">   -870.08096434 </i>
    <i name="XCdc">     55.48432267 </i>
    <i name="pawpsdc">    559.49444536 </i>
    <i name="pawaedc">   -563.13077707 </i>
    <i name="eentropy">      0.00000000 </i>
    <i name="bandstr">   -194.41424233 </i>
    <i name="atom">    864.67971496 </i>
    <i name="e_fr_energy">     -9.83739056 </i>
    <i name="e_wo_entrp">     -9.83739056 </i>
    <i name="e_0_energy">     -9.83739056 </i>
   </energy>
  </scstep>
  <scstep>
   <time name="diag">    0.02    0.02</time>
   <time name="diis">    0.08    0.08</time>
   <time name="orth">    0.00    0.00</time>
   <time name="total">    0.22    0.22</time>
   <energy>
    <i name="e_fr_energy">     -9.82708896 </i>
    <i name="e_wo_entrp">     -9.82708896 </i>
    <i name="e_0_energy">     -9.82708896 </i>
   </energy>
  </scstep>
  <scstep>
   <time name="diag">    0.02    0.02</time>
   <time name="diis">    0.08    0.08</time>
   <time name="orth">    0.00    0.00</time>
   <time name="total">    0.22    0.22</time>
   <energy>
    <i name="e_fr_energy">     -9.83896689 </i>
    <i name="e_wo_entrp">     -9.83896689 </i>
    <i name="e_0_energy">     -9.83896689 </i>
   </energy>
  </scstep>
  <scstep>
   <time name="diag">    0.02    0.02</time>
   <time name="diis">    0.08    0.08</time>
   <time name="orth">    0.00    0.00</time>
   <time name="total">    0.22    0.22</time>
   <energy>
    <i name="e_fr_energy">     -9.84051193 </i>
    <i name="e_wo_entrp">     -9.84051193 </i>
    <i name="e_0_energy">     -9.84051193 </i>
   </energy>
  </scstep>
  <scstep>
   <time name="diag">    0.02    0.02</time>
   <time name="diis">    0.08    0.08</time>
   <time name="orth">    0.00    0.00</time>
   <time name="total">    0.22    0.22</time>
   <energy>
    <i name="e_fr_energy">     -9.84093495 </i>
    <i name="e_wo_entrp">     -9.84093495 </i>
    <i name="e_0_energy">     -9.84093495 </i>
   </energy>
  </scstep>
  <scstep>
   <time name="diag">    0.02    0.02</time>
   <time name="diis">    0.08    0.08</time>
   <time name="orth">    0.00    0.00</time>
   <time name="total">    0.22    0.22</time>
   <energy>
    <i name="e_fr_energy">     -9.84104761 </i>
    <i name="e_wo_entrp">     -9.84104761 </i>
    <i name="e_0_energy">     -9.84104761 </i>
   </energy>
  </scstep>
  <scstep>
   <time name="diag">    0.02    0.02</time>
   <time name="diis">    0.08    0.08</time>
   <time name="orth">    0.00    0.00</time>
   <time name="total">    0.22    0.22</time>
   <energy>
    <i name="e_fr_energy">     -9.84114622 </i>
    <i name="e_wo_entrp">     -9.84114622 </i>
    <i name="e_0_energy">     -9.84114622 </i>
   </energy>
  </scstep>
  <scstep>
   <time name="diag">    0.02    0.02</time>
   <time name="diis">    0.08    0.08</time>
   <time name="orth">    0.00    0.00</time>
   <time name="total">    0.22    0.22</time>
   <energy>
    <i name="e_fr_energy">     -9.84118397 </i>
    <i name="e_wo_entrp">     -9.84118397 </i>
    <i name="e_0_energy">     -9.84118397 </i>
   </energy>
  </scstep>
  <scstep>
   <time name="diag">    0.02    0.02</time>
   <time name="diis">    0.08    0.08</time>
   <time name="orth">    0.00    0.00</time>
   <time name="total">    0.21    0.22</time>
   <energy>
    <i name="e_fr_energy">     -9.84120958 </i>
    <i name="e_wo_entrp">     -9.84120958 </i>
    <i name="e_0_energy">     -9.84120958 </i>
   </energy>
  </scstep>
  <scstep>
   <time name="diag">    0.02    0.02</time>
   <time name="diis">    0.08    0.08</time>
   <time name="orth">    0.00    0.00</time>
   <time name="total">    0.22    0.22</time>
   <energy>
    <i name="e_fr_energy">     -9.84123059 </i>
    <i name="e_wo_entrp">     -9.84123059 </i>
    <i name="e_0_energy">     -9.84123059 </i>
   </energy>
  </scstep>
  <scstep>
   <time name="diag">    0.02    0.02</time>
   <time name="diis">    0.08    0.08</time>
   <time name="orth">    0.00    0.00</time>
   <time name="total">    0.22    0.22</time>
   <energy>
    <i name="e_fr_energy">     -9.84125115 </i>
    <i name="e_wo_entrp">     -9.84125115 </i>
    <i name="e_0_energy">     -9.84125115 </i>
   </energy>
  </scstep>
  <scstep>
   <time name="diag">    0.02    0.02</time>
   <time name="diis">    0.08    0.08</time>
   <time name="orth">    0.00    0.00</time>
   <time name="total">    0.22    0.22</time>
   <energy>
    <i name="e_fr_energy">     -9.84125944 </i>
    <i name="e_wo_entrp">     -9.84125944 </i>
    <i name="e_0_energy">     -9.84125944 </i>
   </energy>
  </scstep>
  <scstep>
   <time name="diag">    0.02    0.02</time>
   <time name="diis">    0.08    0.08</time>
   <time name="orth">    0.00    0.00</time>
   <time name="total">    0.22    0.22</time>
   <energy>
    <i name="e_fr_energy">     -9.84126647 </i>
    <i name="e_wo_entrp">     -9.84126647 </i>
    <i name="e_0_energy">     -9.84126647 </i>
   </energy>
  </scstep>
  <scstep>
   <time name="diag">    0.02    0.02</time>
   <time name="diis">    0.08    0.08</time>
   <time name="orth">    0.00    0.00</time>
   <time name="total">    0.17    0.18</time>
   <energy>
    <i name="alphaZ">      0.56134412 </i>
    <i name="ewald">    137.56876607 </i>
[...]
        <r>     2.8197     0.0065     0.0000     0.0000     0.0125     0.0000     0.0000     0.0000     0.0000     0.0000 </r>
        <r>     2.9546     0.0007     0.0000     0.0391     0.0004     0.0000     0.0000     0.0000     0.0000     0.0000 </r>
        <r>     3.0894     0.0000     0.0000     0.0000     0.0000     0.0000     0.0000     0.0000     0.0000     0.0000 </r>
        <r>     3.2243     0.0001     0.0163     0.0000     0.0004     0.0000     0.0000     0.0000     0.0000     0.0000 </r>
        <r>     3.3591     0.0000     0.0000     0.0000     0.0000     0.0000     0.0000     0.0000     0.0000     0.0000 </r>
        <r>     3.4940     0.0000     0.0000     0.0000     0.0000     0.0000     0.0000     0.0000     0.0000     0.0000 </r>
        <r>     3.6288     0.0000     0.0000     0.0000     0.0000     0.0000     0.0000     0.0000     0.0000     0.0000 </r>
        <r>     3.7636     0.0000     0.0000     0.0000     0.0000     0.0000     0.0000     0.0000     0.0000     0.0000 </r>
        <r>     3.8985     0.0000     0.0000     0.0000     0.0000     0.0000     0.0000     0.0000     0.0000     0.0000 </r>
        <r>     4.0333     0.0000     0.0000     0.0000     0.0000     0.0000     0.0000     0.0000     0.0000     0.0000 </r>
        <r>     4.1682     0.1128     0.0001     0.0028     0.5248     0.0000     0.0000     0.0000     0.0000     0.0000 </r>
        <r>     4.3030     0.0000     0.0000     0.0000     0.0000     0.0000     0.0000     0.0000     0.0000     0.0000 </r>
        <r>     4.4379     0.0000     0.0000     0.0000     0.0000     0.0000     0.0000     0.0000     0.0000     0.0000 </r>
        <r>     4.5727     0.0000     0.0000     0.0000     0.0000     0.0000     0.0000     0.0000     0.0000     0.0000 </r>
        <r>     4.7076     0.0000     0.0000     0.0000     0.0000     0.0000     0.0000     0.0000     0.0000     0.0000 </r>
        <r>     4.8424     0.0000     0.0000     0.0000     0.0000     0.0000     0.0000     0.0000     0.0000     0.0000 </r>
        <r>     4.9772     0.0000     0.0000     0.0000     0.0000     0.0000     0.0000     0.0000     0.0000     0.0000 </r>
        <r>     5.1121     0.0000     0.0000     0.0000     0.0000     0.0000     0.0000     0.0000     0.0000     0.0000 </r>
        <r>     5.2469     0.0000     0.0000     0.0000     0.0000     0.0000     0.0000     0.0000     0.0000     0.0000 </r>
        <r>     5.3818     0.0000     0.0000     0.0000     0.0000     0.0000     0.0000     0.0000     0.0000     0.0000 </r>
        <r>     5.5166     0.0000     0.0000     0.0000     0.0000     0.0000     0.0000     0.0000     0.0000     0.0000 </r>
        <r>     5.6515     0.0000     0.0000     0.0000     0.0000     0.0000     0.0000     0.0000     0.0000     0.0000 </r>
        <r>     5.7863     0.0000     0.0000     0.0000     0.0000     0.0000     0.0000     0.0000     0.0000     0.0000 </r>
        <r>     5.9211     0.0000     0.0000     0.0000     0.0000     0.0000     0.0000     0.0000     0.0000     0.0000 </r>
        <r>     6.0560     0.0000     0.0000     0.0000     0.0000     0.0000     0.0000     0.0000     0.0000     0.0000 </r>
        <r>     6.1908     0.0000     0.0000     0.0000     0.0000     0.0000     0.0000     0.0000     0.0000     0.0000 </r>
       </set>
      </set>
     </set>
    </array>
   </partial>
  </dos>
  <projected>
   <eigenvalues>
    <array>
     <dimension dim="1">band</dimension>
     <dimension dim="2">kpoint</dimension>
     <dimension dim="3">spin</dimension>
     <field>eigene</field>
     <field>occ</field>
     <set>
      <set comment="spin 1">
       <set comment="kpoint 1">
        <r>  -32.4237    1.0000 </r>
        <r>  -20.5762    1.0000 </r>
        <r>  -13.3345    1.0000 </r>
        <r>  -13.1837    1.0000 </r>
        <r>  -13.1833    1.0000 </r>
        <r>   -6.8857    1.0000 </r>
        <r>   -6.8857    1.0000 </r>
        <r>   -0.3096    0.0000 </r>
        <r>    0.9104    0.0000 </r>
        <r>    1.0226    0.0000 </r>
        <r>    1.0629    0.0000 </r>
        <r>    1.1192    0.0000 </r>
        <r>    1.3537    0.0000 </r>
        <r>    1.5880    0.0000 </r>
        <r>    2.3547    0.0000 </r>
        <r>    2.4441    0.0000 </r>
        <r>    2.4570    0.0000 </r>
        <r>    2.4792    0.0000 </r>
        <r>    2.6995    0.0000 </r>
        <r>    2.7474    0.0000 </r>
        <r>    2.9316    0.0000 </r>
        <r>    2.9397    0.0000 </r>
        <r>    2.9496    0.0000 </r>
        <r>    3.1525    0.0000 </r>
        <r>    3.1533    0.0000 </r>
        <r>    3.1976    0.0000 </r>
        <r>    3.7080    0.0000 </r>
        <r>    4.3136    0.0000 </r>
       </set>
      </set>
      <set comment="spin 2">
       <set comment="kpoint 1">
        <r>  -31.1978    1.0000 </r>
        <r>  -18.7798    1.0000 </r>
        <r>  -12.4082    1.0000 </r>
        <r>  -11.3370    1.0000 </r>
        <r>  -11.3367    1.0000 </r>
        <r>   -4.6062    0.0000 </r>
        <r>   -4.6062    0.0000 </r>
        <r>   -0.1988    0.0000 </r>
        <r>    1.0231    0.0000 </r>
        <r>    1.1374    0.0000 </r>
        <r>    1.2422    0.0000 </r>
        <r>    1.3538    0.0000 </r>
        <r>    1.4208    0.0000 </r>
        <r>    1.6320    0.0000 </r>
        <r>    2.5145    0.0000 </r>
        <r>    2.5394    0.0000 </r>
        <r>    2.5495    0.0000 </r>
        <r>    2.5876    0.0000 </r>
        <r>    2.7486    0.0000 </r>
        <r>    2.9047    0.0000 </r>
        <r>    2.9759    0.0000 </r>
        <r>    2.9902    0.0000 </r>
        <r>    3.1288    0.0000 </r>
        <r>    3.1991    0.0000 </r>
        <r>    3.2395    0.0000 </r>
        <r>    3.2419    0.0000 </r>
        <r>    4.0959    0.0000 </r>
        <r>    4.3521    0.0000 </r>
       </set>
      </set>
     </set>
    </array>
   </eigenvalues>
   <array>
    <dimension dim="1">ion</dimension>
    <dimension dim="2">band</dimension>
    <dimension dim="3">kpoint</dimension>
    <dimension dim="4">spin</dimension>
    <field>    s</field>
    <field>   py</field>
    <field>   pz</field>
    <field>   px</field>
    <field>  dxy</field>
    <field>  dyz</field>
    <field>  dz2</field>
    <field>  dxz</field>
    <field>x2-y2</field>
    <set>
     <set comment="spin1">
      <set comment="kpoint 1">
       <set comment="band 1">
        <r>  0.4011  0.0000  0.0005  0.0944  0.0000  0.0000  0.0000  0.0000  0.0000 </r>
        <r>  0.4011  0.0000  0.0005  0.0944  0.0000  0.0000  0.0000  0.0000  0.0000 </r>
       </set>
       <set comment="band 2">
        <r>  0.3733  0.0000  0.0002  0.0401  0.0000  0.0000  0.0000  0.0000  0.0000 </r>
        <r>  0.3733  0.0000  0.0002  0.0401  0.0000  0.0000  0.0000  0.0000  0.0000 </r>
       </set>
       <set comment="band 3">
        <r>  0.0412  0.0001  0.0019  0.3793  0.0000  0.0000  0.0000  0.0000  0.0000 </r>
        <r>  0.0412  0.0001  0.0019  0.3793  0.0000  0.0000  0.0000  0.0000  0.0000 </r>
       </set>
       <set comment="band 4">
        <r>  0.0000  0.3724  0.0001  0.0001  0.0000  0.0000  0.0000  0.0000  0.0000 </r>
        <r>  0.0000  0.3724  0.0001  0.0001  0.0000  0.0000  0.0000  0.0000  0.0000 </r>
       </set>
       <set comment="band 5">
        <r>  0.0000  0.0002  0.3707  0.0019  0.0000  0.0000  0.0000  0.0000  0.0000 </r>
        <r>  0.0000  0.0002  0.3707  0.0019  0.0000  0.0000  0.0000  0.0000  0.0000 </r>
       </set>
       <set comment="band 6">
        <r>  0.0000  0.3769  0.0115  0.0000  0.0000  0.0000  0.0000  0.0000  0.0000 </r>
        <r>  0.0000  0.3769  0.0115  0.0000  0.0000  0.0000  0.0000  0.0000  0.0000 </r>
       </set>
       <set comment="band 7">
        <r>  0.0000  0.0114  0.3749  0.0021  0.0000  0.0000  0.0000  0.0000  0.0000 </r>
        <r>  0.0000  0.0114  0.3749  0.0021  0.0000  0.0000  0.0000  0.0000  0.0000 </r>
       </set>
       <set comment="band 8">
        <r>  0.0043  0.0000  0.0000  0.0026  0.0000  0.0000  0.0000  0.0000  0.0000 </r>
        <r>  0.0043  0.0000  0.0000  0.0026  0.0000  0.0000  0.0000  0.0000  0.0000 </r>
       </set>
       <set comment="band 9">
        <r>  0.0011  0.0000  0.0041  0.0022  0.0000  0.0000  0.0000  0.0000  0.0000 </r>
        <r>  0.0014  0.0000  0.0042  0.0019  0.0000  0.0000  0.0000  0.0000  0.0000 </r>
       </set>
       <set comment="band 10">
        <r>  0.0240  0.0000  0.0009  0.0326  0.0000  0.0000  0.0000  0.0000  0.0000 </r>
        <r>  0.0232  0.0000  0.0009  0.0332  0.0000  0.0000  0.0000  0.0000  0.0000 </r>
       </set>
       <set comment="band 11">
        <r>  0.0033  0.0000  0.0000  0.0021  0.0000  0.0000  0.0000  0.0000  0.0000 </r>
        <r>  0.0037  0.0000  0.0000  0.0018  0.0000  0.0000  0.0000  0.0000  0.0000 </r>
       </set>
       <set comment="band 12">
        <r>  0.0001  0.0059  0.0000  0.0001  0.0000  0.0000  0.0000  0.0000  0.0000 </r>
        <r>  0.0001  0.0059  0.0000  0.0001  0.0000  0.0000  0.0000  0.0000  0.0000 </r>
       </set>
       <set comment="band 13">
        <r>  0.0013  0.0000  0.0000  0.0007  0.0000  0.0000  0.0000  0.0000  0.0000 </r>
        <r>  0.0014  0.0000  0.0000  0.0006  0.0000  0.0000  0.0000  0.0000  0.0000 </r>
       </set>
       <set comment="band 14">
        <r>  0.0010  0.0000  0.0000  0.0000  0.0000  0.0000  0.0000  0.0000  0.0000 </r>
        <r>  0.0010  0.0000  0.0000  0.0000  0.0000  0.0000  0.0000  0.0000  0.0000 </r>
       </set>
       <set comment="band 15">
        <r>  0.0157  0.0000  0.0003  0.0534  0.0000  0.0000  0.0000  0.0000  0.0000 </r>
        <r>  0.0156  0.0000  0.0002  0.0536  0.0000  0.0000  0.0000  0.0000  0.0000 </r>
       </set>
       <set comment="band 16">
        <r>  0.0000  0.0000  0.0000  0.0000  0.0000  0.0000  0.0000  0.0000  0.0000 </r>
        <r>  0.0000  0.0001  0.0000  0.0000  0.0000  0.0000  0.0000  0.0000  0.0000 </r>
       </set>
       <set comment="band 17">
        <r>  0.0000  0.0000  0.0050  0.0000  0.0000  0.0000  0.0000  0.0000  0.0000 </r>
        <r>  0.0000  0.0000  0.0049  0.0000  0.0000  0.0000  0.0000  0.0000  0.0000 </r>
       </set>
       <set comment="band 18">
        <r>  0.0000  0.0040  0.0000  0.0001  0.0000  0.0000  0.0000  0.0000  0.0000 </r>
        <r>  0.0000  0.0039  0.0000  0.0001  0.0000  0.0000  0.0000  0.0000  0.0000 </r>
       </set>
       <set comment="band 19">
        <r>  0.0012  0.0000  0.0000  0.0015  0.0000  0.0000  0.0000  0.0000  0.0000 </r>
        <r>  0.0013  0.0000  0.0000  0.0013  0.0000  0.0000  0.0000  0.0000  0.0000 </r>
       </set>
       <set comment="band 20">
        <r>  0.0000  0.0000  0.0045  0.0000  0.0000  0.0000  0.0000  0.0000  0.0000 </r>
        <r>  0.0000  0.0000  0.0048  0.0000  0.0000  0.0000  0.0000  0.0000  0.0000 </r>
       </set>
       <set comment="band 21">
        <r>  0.0020  0.0003  0.0001  0.0002  0.0000  0.0000  0.0000  0.0000  0.0000 </r>
        <r>  0.0023  0.0003  0.0004  0.0001  0.0000  0.0000  0.0000  0.0000  0.0000 </r>
       </set>
       <set comment="band 22">
        <r>  0.0005  0.0002  0.0012  0.0000  0.0000  0.0000  0.0000  0.0000  0.0000 </r>
        <r>  0.0004  0.0002  0.0008  0.0001  0.0000  0.0000  0.0000  0.0000  0.0000 </r>
       </set>
       <set comment="band 23">
        <r>  0.0002  0.0052  0.0000  0.0000  0.0000  0.0000  0.0000  0.0000  0.0000 </r>
        <r>  0.0002  0.0052  0.0000  0.0000  0.0000  0.0000  0.0000  0.0000  0.0000 </r>
       </set>
       <set comment="band 24">
        <r>  0.0012  0.0000  0.0000  0.0074  0.0000  0.0000  0.0000  0.0000  0.0000 </r>
        <r>  0.0013  0.0000  0.0000  0.0075  0.0000  0.0000  0.0000  0.0000  0.0000 </r>
       </set>
       <set comment="band 25">
        <r>  0.0000  0.0020  0.0000  0.0000  0.0000  0.0000  0.0000  0.0000  0.0000 </r>
        <r>  0.0000  0.0020  0.0000  0.0000  0.0000  0.0000  0.0000  0.0000  0.0000 </r>
       </set>
       <set comment="band 26">
        <r>  0.0008  0.0000  0.0001  0.0000  0.0000  0.0000  0.0000  0.0000  0.0000 </r>
        <r>  0.0007  0.0000  0.0000  0.0000  0.0000  0.0000  0.0000  0.0000  0.0000 </r>
       </set>
       <set comment="band 27">
        <r>  0.0130  0.0000  0.0005  0.1136  0.0000  0.0000  0.0000  0.0000  0.0000 </r>
        <r>  0.0130  0.0000  0.0004  0.1137  0.0000  0.0000  0.0000  0.0000  0.0000 </r>
       </set>
       <set comment="band 28">
        <r>  0.0000  0.0002  0.0001  0.0000  0.0000  0.0000  0.0000  0.0000  0.0000 </r>
        <r>  0.0000  0.0001  0.0000  0.0000  0.0000  0.0000  0.0000  0.0000  0.0000 </r>
       </set>
      </set>
     </set>
     <set comment="spin2">
      <set comment="kpoint 1">
       <set comment="band 1">
        <r>  0.3941  0.0000  0.0005  0.1046  0.0000  0.0000  0.0000  0.0000  0.0000 </r>
        <r>  0.3941  0.0000  0.0005  0.1046  0.0000  0.0000  0.0000  0.0000  0.0000 </r>
       </set>
       <set comment="band 2">
        <r>  0.3654  0.0000  0.0002  0.0445  0.0000  0.0000  0.0000  0.0000  0.0000 </r>
        <r>  0.3654  0.0000  0.0002  0.0445  0.0000  0.0000  0.0000  0.0000  0.0000 </r>
       </set>
       <set comment="band 3">
        <r>  0.0461  0.0001  0.0019  0.3676  0.0000  0.0000  0.0000  0.0000  0.0000 </r>
        <r>  0.0461  0.0001  0.0019  0.3676  0.0000  0.0000  0.0000  0.0000  0.0000 </r>
       </set>
       <set comment="band 4">
        <r>  0.0000  0.3585  0.0001  0.0001  0.0000  0.0000  0.0000  0.0000  0.0000 </r>
        <r>  0.0000  0.3585  0.0001  0.0001  0.0000  0.0000  0.0000  0.0000  0.0000 </r>
       </set>
       <set comment="band 5">
        <r>  0.0000  0.0001  0.3569  0.0018  0.0000  0.0000  0.0000  0.0000  0.0000 </r>
        <r>  0.0000  0.0001  0.3569  0.0018  0.0000  0.0000  0.0000  0.0000  0.0000 </r>
       </set>
       <set comment="band 6">
        <r>  0.0000  0.0244  0.3472  0.0015  0.0000  0.0000  0.0000  0.0000  0.0000 </r>
        <r>  0.0000  0.0244  0.3472  0.0015  0.0000  0.0000  0.0000  0.0000  0.0000 </r>
       </set>
       <set comment="band 7">
        <r>  0.0000  0.3486  0.0241  0.0005  0.0000  0.0000  0.0000  0.0000  0.0000 </r>
        <r>  0.0000  0.3486  0.0241  0.0005  0.0000  0.0000  0.0000  0.0000  0.0000 </r>
       </set>
       <set comment="band 8">
        <r>  0.0038  0.0000  0.0000  0.0024  0.0000  0.0000  0.0000  0.0000  0.0000 </r>
        <r>  0.0038  0.0000  0.0000  0.0024  0.0000  0.0000  0.0000  0.0000  0.0000 </r>
       </set>
       <set comment="band 9">
        <r>  0.0001  0.0000  0.0048  0.0001  0.0000  0.0000  0.0000  0.0000  0.0000 </r>
        <r>  0.0000  0.0000  0.0047  0.0002  0.0000  0.0000  0.0000  0.0000  0.0000 </r>
       </set>
       <set comment="band 10">
        <r>  0.0033  0.0000  0.0000  0.0021  0.0000  0.0000  0.0000  0.0000  0.0000 </r>
        <r>  0.0034  0.0000  0.0000  0.0020  0.0000  0.0000  0.0000  0.0000  0.0000 </r>
       </set>
       <set comment="band 11">
        <r>  0.0001  0.0059  0.0000  0.0001  0.0000  0.0000  0.0000  0.0000  0.0000 </r>
        <r>  0.0001  0.0059  0.0000  0.0001  0.0000  0.0000  0.0000  0.0000  0.0000 </r>
       </set>
       <set comment="band 12">
        <r>  0.0167  0.0000  0.0002  0.0124  0.0000  0.0000  0.0000  0.0000  0.0000 </r>
        <r>  0.0171  0.0000  0.0002  0.0121  0.0000  0.0000  0.0000  0.0000  0.0000 </r>
       </set>
       <set comment="band 13">
        <r>  0.0018  0.0000  0.0000  0.0007  0.0000  0.0000  0.0000  0.0000  0.0000 </r>
        <r>  0.0013  0.0000  0.0000  0.0010  0.0000  0.0000  0.0000  0.0000  0.0000 </r>
       </set>
       <set comment="band 14">
        <r>  0.0010  0.0000  0.0000  0.0000  0.0000  0.0000  0.0000  0.0000  0.0000 </r>
        <r>  0.0010  0.0000  0.0000  0.0000  0.0000  0.0000  0.0000  0.0000  0.0000 </r>
       </set>
       <set comment="band 15">
        <r>  0.0000  0.0000  0.0000  0.0000  0.0000  0.0000  0.0000  0.0000  0.0000 </r>
        <r>  0.0000  0.0000  0.0000  0.0000  0.0000  0.0000  0.0000  0.0000  0.0000 </r>
       </set>
       <set comment="band 16">
        <r>  0.0002  0.0000  0.0050  0.0005  0.0000  0.0000  0.0000  0.0000  0.0000 </r>
        <r>  0.0002  0.0000  0.0051  0.0006  0.0000  0.0000  0.0000  0.0000  0.0000 </r>
       </set>
       <set comment="band 17">
        <r>  0.0002  0.0045  0.0000  0.0004  0.0000  0.0000  0.0000  0.0000  0.0000 </r>
        <r>  0.0002  0.0045  0.0000  0.0004  0.0000  0.0000  0.0000  0.0000  0.0000 </r>
       </set>
       <set comment="band 18">
        <r>  0.0139  0.0001  0.0005  0.0239  0.0000  0.0000  0.0000  0.0000  0.0000 </r>
        <r>  0.0144  0.0001  0.0006  0.0233  0.0000  0.0000  0.0000  0.0000  0.0000 </r>
       </set>
       <set comment="band 19">
        <r>  0.0011  0.0000  0.0000  0.0012  0.0000  0.0000  0.0000  0.0000  0.0000 </r>
        <r>  0.0009  0.0000  0.0000  0.0017  0.0000  0.0000  0.0000  0.0000  0.0000 </r>
       </set>
       <set comment="band 20">
        <r>  0.0002  0.0000  0.0056  0.0000  0.0000  0.0000  0.0000  0.0000  0.0000 </r>
        <r>  0.0001  0.0000  0.0053  0.0001  0.0000  0.0000  0.0000  0.0000  0.0000 </r>
       </set>
       <set comment="band 21">
        <r>  0.0002  0.0000  0.0014  0.0000  0.0000  0.0000  0.0000  0.0000  0.0000 </r>
        <r>  0.0000  0.0000  0.0011  0.0001  0.0000  0.0000  0.0000  0.0000  0.0000 </r>
       </set>
       <set comment="band 22">
        <r>  0.0030  0.0000  0.0001  0.0003  0.0000  0.0000  0.0000  0.0000  0.0000 </r>
        <r>  0.0030  0.0000  0.0004  0.0003  0.0000  0.0000  0.0000  0.0000  0.0000 </r>
       </set>
       <set comment="band 23">
        <r>  0.0000  0.0069  0.0000  0.0000  0.0000  0.0000  0.0000  0.0000  0.0000 </r>
        <r>  0.0000  0.0069  0.0000  0.0000  0.0000  0.0000  0.0000  0.0000  0.0000 </r>
       </set>
       <set comment="band 24">
        <r>  0.0000  0.0022  0.0000  0.0000  0.0000  0.0000  0.0000  0.0000  0.0000 </r>
        <r>  0.0000  0.0022  0.0000  0.0000  0.0000  0.0000  0.0000  0.0000  0.0000 </r>
       </set>
       <set comment="band 25">
        <r>  0.0018  0.0000  0.0000  0.0026  0.0000  0.0000  0.0000  0.0000  0.0000 </r>
        <r>  0.0005  0.0000  0.0000  0.0028  0.0000  0.0000  0.0000  0.0000  0.0000 </r>
       </set>
       <set comment="band 26">
        <r>  0.0003  0.0000  0.0001  0.0005  0.0000  0.0000  0.0000  0.0000  0.0000 </r>
        <r>  0.0016  0.0000  0.0001  0.0003  0.0000  0.0000  0.0000  0.0000  0.0000 </r>
       </set>
       <set comment="band 27">
        <r>  0.0152  0.0000  0.0002  0.0707  0.0000  0.0000  0.0000  0.0000  0.0000 </r>
        <r>  0.0152  0.0000  0.0004  0.0708  0.0000  0.0000  0.0000  0.0000  0.0000 </r>
       </set>
       <set comment="band 28">
        <r>  0.0000  0.0000  0.0000  0.0000  0.0000  0.0000  0.0000  0.0000  0.0000 </r>
        <r>  0.0000  0.0000  0.0000  0.0000  0.0000  0.0000  0.0000  0.0000  0.0000 </r>
       </set>
      </set>
     </set>
    </set>
   </array>
  </projected>
 </calculation>
 <structure name="finalpos" >
  <crystal>
   <varray name="basis" >
    <v>       9.00000000       0.00000000       0.00000000 </v>
    <v>       0.00000000      10.00000000       0.00000000 </v>
    <v>       0.00000000       0.00000000      11.00000000 </v>
   </varray>
   <i name="volume">    990.00000000 </i>
   <varray name="rec_basis" >
    <v>       0.11111111       0.00000000       0.00000000 </v>
    <v>       0.00000000       0.10000000       0.00000000 </v>
    <v>       0.00000000       0.00000000       0.09090909 </v>
   </varray>
  </crystal>
  <varray name="positions" >
   <v>       0.44135031       0.50558477       0.50249870 </v>
   <v>       0.57815969       0.50337523       0.49450312 </v>
  </varray>
  <varray name="selective"  type="logical" >
   <v type="logical" >  T  T  T </v>
   <v type="logical" >  T  T  T </v>
  </varray>
  <nose>
   <v>      -3.00000000       0.00000000       0.00010000       0.00010000 </v>
  </nose>
 </structure>
</modeling>
