unknown system                          
           1
     9.000000    0.000000    0.000000
     0.000000   10.000000    0.000000
     0.000000    0.000000   11.000000
   O 
   2
Direct configuration=     1
   0.44135031  0.50558477  0.50249870
   0.57815969  0.50337523  0.49632130
Direct configuration=     2
   0.44357254  0.50558477  0.50249870
   0.57815969  0.50337523  0.49632130
Direct configuration=     3
   0.43912809  0.50558477  0.50249870
   0.57815969  0.50337523  0.49632130
Direct configuration=     4
   0.44135031  0.50758477  0.50249870
   0.57815969  0.50337523  0.49632130
Direct configuration=     5
   0.44135031  0.50358477  0.50249870
   0.57815969  0.50337523  0.49632130
Direct configuration=     6
   0.44135031  0.50558477  0.50431688
   0.57815969  0.50337523  0.49632130
Direct configuration=     7
   0.44135031  0.50558477  0.50068052
   0.57815969  0.50337523  0.49632130
Direct configuration=     8
   0.44135031  0.50558477  0.50249870
   0.58038191  0.50337523  0.49632130
Direct configuration=     9
   0.44135031  0.50558477  0.50249870
   0.57593746  0.50337523  0.49632130
Direct configuration=    10
   0.44135031  0.50558477  0.50249870
   0.57815969  0.50537523  0.49632130
Direct configuration=    11
   0.44135031  0.50558477  0.50249870
   0.57815969  0.50137523  0.49632130
Direct configuration=    12
   0.44135031  0.50558477  0.50249870
   0.57815969  0.50337523  0.49813948
Direct configuration=    13
   0.44135031  0.50558477  0.50249870
   0.57815969  0.50337523  0.49450312
